+ 1 0 1 tcp 40 ------- 0 0.0 2.0 0 0
- 1 0 1 tcp 40 ------- 0 0.0 2.0 0 0
r 1.010003 0 1 tcp 40 ------- 0 0.0 2.0 0 0
+ 1.010003 1 2 tcp 40 ------- 0 0.0 2.0 0 0
- 1.010003 1 2 tcp 40 ------- 0 0.0 2.0 0 0
r 1.020006 1 2 tcp 40 ------- 0 0.0 2.0 0 0
+ 1.020006 2 1 ack 40 ------- 0 2.0 0.0 0 1
- 1.020006 2 1 ack 40 ------- 0 2.0 0.0 0 1
r 1.03001 2 1 ack 40 ------- 0 2.0 0.0 0 1
+ 1.03001 1 0 ack 40 ------- 0 2.0 0.0 0 1
- 1.03001 1 0 ack 40 ------- 0 2.0 0.0 0 1
r 1.040013 1 0 ack 40 ------- 0 2.0 0.0 0 1
+ 1.040013 0 1 tcp 1540 ------- 0 0.0 2.0 1 2
- 1.040013 0 1 tcp 1540 ------- 0 0.0 2.0 1 2
+ 1.040013 0 1 tcp 1540 ------- 0 0.0 2.0 2 3
- 1.040136 0 1 tcp 1540 ------- 0 0.0 2.0 2 3
r 1.050136 0 1 tcp 1540 ------- 0 0.0 2.0 1 2
+ 1.050136 1 2 tcp 1540 ------- 0 0.0 2.0 1 2
- 1.050136 1 2 tcp 1540 ------- 0 0.0 2.0 1 2
r 1.050259 0 1 tcp 1540 ------- 0 0.0 2.0 2 3
+ 1.050259 1 2 tcp 1540 ------- 0 0.0 2.0 2 3
- 1.050259 1 2 tcp 1540 ------- 0 0.0 2.0 2 3
r 1.060259 1 2 tcp 1540 ------- 0 0.0 2.0 1 2
+ 1.060259 2 1 ack 40 ------- 0 2.0 0.0 1 4
- 1.060259 2 1 ack 40 ------- 0 2.0 0.0 1 4
r 1.060382 1 2 tcp 1540 ------- 0 0.0 2.0 2 3
+ 1.060382 2 1 ack 40 ------- 0 2.0 0.0 2 5
- 1.060382 2 1 ack 40 ------- 0 2.0 0.0 2 5
r 1.070262 2 1 ack 40 ------- 0 2.0 0.0 1 4
+ 1.070262 1 0 ack 40 ------- 0 2.0 0.0 1 4
- 1.070262 1 0 ack 40 ------- 0 2.0 0.0 1 4
r 1.070386 2 1 ack 40 ------- 0 2.0 0.0 2 5
+ 1.070386 1 0 ack 40 ------- 0 2.0 0.0 2 5
- 1.070386 1 0 ack 40 ------- 0 2.0 0.0 2 5
r 1.080266 1 0 ack 40 ------- 0 2.0 0.0 1 4
+ 1.080266 0 1 tcp 1540 ------- 0 0.0 2.0 3 6
- 1.080266 0 1 tcp 1540 ------- 0 0.0 2.0 3 6
+ 1.080266 0 1 tcp 1540 ------- 0 0.0 2.0 4 7
r 1.080389 1 0 ack 40 ------- 0 2.0 0.0 2 5
+ 1.080389 0 1 tcp 1540 ------- 0 0.0 2.0 5 8
+ 1.080389 0 1 tcp 1540 ------- 0 0.0 2.0 6 9
- 1.080389 0 1 tcp 1540 ------- 0 0.0 2.0 4 7
- 1.080512 0 1 tcp 1540 ------- 0 0.0 2.0 5 8
- 1.080635 0 1 tcp 1540 ------- 0 0.0 2.0 6 9
r 1.090389 0 1 tcp 1540 ------- 0 0.0 2.0 3 6
+ 1.090389 1 2 tcp 1540 ------- 0 0.0 2.0 3 6
- 1.090389 1 2 tcp 1540 ------- 0 0.0 2.0 3 6
r 1.090512 0 1 tcp 1540 ------- 0 0.0 2.0 4 7
+ 1.090512 1 2 tcp 1540 ------- 0 0.0 2.0 4 7
- 1.090512 1 2 tcp 1540 ------- 0 0.0 2.0 4 7
r 1.090635 0 1 tcp 1540 ------- 0 0.0 2.0 5 8
+ 1.090635 1 2 tcp 1540 ------- 0 0.0 2.0 5 8
- 1.090635 1 2 tcp 1540 ------- 0 0.0 2.0 5 8
r 1.090758 0 1 tcp 1540 ------- 0 0.0 2.0 6 9
+ 1.090758 1 2 tcp 1540 ------- 0 0.0 2.0 6 9
- 1.090758 1 2 tcp 1540 ------- 0 0.0 2.0 6 9
r 1.100512 1 2 tcp 1540 ------- 0 0.0 2.0 3 6
+ 1.100512 2 1 ack 40 ------- 0 2.0 0.0 3 10
- 1.100512 2 1 ack 40 ------- 0 2.0 0.0 3 10
r 1.100635 1 2 tcp 1540 ------- 0 0.0 2.0 4 7
+ 1.100635 2 1 ack 40 ------- 0 2.0 0.0 4 11
- 1.100635 2 1 ack 40 ------- 0 2.0 0.0 4 11
r 1.100758 1 2 tcp 1540 ------- 0 0.0 2.0 5 8
+ 1.100758 2 1 ack 40 ------- 0 2.0 0.0 5 12
- 1.100758 2 1 ack 40 ------- 0 2.0 0.0 5 12
r 1.100882 1 2 tcp 1540 ------- 0 0.0 2.0 6 9
+ 1.100882 2 1 ack 40 ------- 0 2.0 0.0 6 13
- 1.100882 2 1 ack 40 ------- 0 2.0 0.0 6 13
r 1.110515 2 1 ack 40 ------- 0 2.0 0.0 3 10
+ 1.110515 1 0 ack 40 ------- 0 2.0 0.0 3 10
- 1.110515 1 0 ack 40 ------- 0 2.0 0.0 3 10
r 1.110638 2 1 ack 40 ------- 0 2.0 0.0 4 11
+ 1.110638 1 0 ack 40 ------- 0 2.0 0.0 4 11
- 1.110638 1 0 ack 40 ------- 0 2.0 0.0 4 11
r 1.110762 2 1 ack 40 ------- 0 2.0 0.0 5 12
+ 1.110762 1 0 ack 40 ------- 0 2.0 0.0 5 12
- 1.110762 1 0 ack 40 ------- 0 2.0 0.0 5 12
r 1.110885 2 1 ack 40 ------- 0 2.0 0.0 6 13
+ 1.110885 1 0 ack 40 ------- 0 2.0 0.0 6 13
- 1.110885 1 0 ack 40 ------- 0 2.0 0.0 6 13
r 1.120518 1 0 ack 40 ------- 0 2.0 0.0 3 10
+ 1.120518 0 1 tcp 1540 ------- 0 0.0 2.0 7 14
- 1.120518 0 1 tcp 1540 ------- 0 0.0 2.0 7 14
+ 1.120518 0 1 tcp 1540 ------- 0 0.0 2.0 8 15
r 1.120642 1 0 ack 40 ------- 0 2.0 0.0 4 11
+ 1.120642 0 1 tcp 1540 ------- 0 0.0 2.0 9 16
+ 1.120642 0 1 tcp 1540 ------- 0 0.0 2.0 10 17
- 1.120642 0 1 tcp 1540 ------- 0 0.0 2.0 8 15
r 1.120765 1 0 ack 40 ------- 0 2.0 0.0 5 12
+ 1.120765 0 1 tcp 1540 ------- 0 0.0 2.0 11 18
+ 1.120765 0 1 tcp 1540 ------- 0 0.0 2.0 12 19
- 1.120765 0 1 tcp 1540 ------- 0 0.0 2.0 9 16
r 1.120888 1 0 ack 40 ------- 0 2.0 0.0 6 13
+ 1.120888 0 1 tcp 1540 ------- 0 0.0 2.0 13 20
+ 1.120888 0 1 tcp 1540 ------- 0 0.0 2.0 14 21
d 1.120888 0 1 tcp 1540 ------- 0 0.0 2.0 14 21
- 1.120888 0 1 tcp 1540 ------- 0 0.0 2.0 10 17
- 1.121011 0 1 tcp 1540 ------- 0 0.0 2.0 11 18
- 1.121134 0 1 tcp 1540 ------- 0 0.0 2.0 12 19
- 1.121258 0 1 tcp 1540 ------- 0 0.0 2.0 13 20
r 1.130642 0 1 tcp 1540 ------- 0 0.0 2.0 7 14
+ 1.130642 1 2 tcp 1540 ------- 0 0.0 2.0 7 14
- 1.130642 1 2 tcp 1540 ------- 0 0.0 2.0 7 14
r 1.130765 0 1 tcp 1540 ------- 0 0.0 2.0 8 15
+ 1.130765 1 2 tcp 1540 ------- 0 0.0 2.0 8 15
- 1.130765 1 2 tcp 1540 ------- 0 0.0 2.0 8 15
r 1.130888 0 1 tcp 1540 ------- 0 0.0 2.0 9 16
+ 1.130888 1 2 tcp 1540 ------- 0 0.0 2.0 9 16
- 1.130888 1 2 tcp 1540 ------- 0 0.0 2.0 9 16
r 1.131011 0 1 tcp 1540 ------- 0 0.0 2.0 10 17
+ 1.131011 1 2 tcp 1540 ------- 0 0.0 2.0 10 17
- 1.131011 1 2 tcp 1540 ------- 0 0.0 2.0 10 17
r 1.131134 0 1 tcp 1540 ------- 0 0.0 2.0 11 18
+ 1.131134 1 2 tcp 1540 ------- 0 0.0 2.0 11 18
- 1.131134 1 2 tcp 1540 ------- 0 0.0 2.0 11 18
r 1.131258 0 1 tcp 1540 ------- 0 0.0 2.0 12 19
+ 1.131258 1 2 tcp 1540 ------- 0 0.0 2.0 12 19
- 1.131258 1 2 tcp 1540 ------- 0 0.0 2.0 12 19
r 1.131381 0 1 tcp 1540 ------- 0 0.0 2.0 13 20
+ 1.131381 1 2 tcp 1540 ------- 0 0.0 2.0 13 20
- 1.131381 1 2 tcp 1540 ------- 0 0.0 2.0 13 20
r 1.140765 1 2 tcp 1540 ------- 0 0.0 2.0 7 14
+ 1.140765 2 1 ack 40 ------- 0 2.0 0.0 7 22
- 1.140765 2 1 ack 40 ------- 0 2.0 0.0 7 22
r 1.140888 1 2 tcp 1540 ------- 0 0.0 2.0 8 15
+ 1.140888 2 1 ack 40 ------- 0 2.0 0.0 8 23
- 1.140888 2 1 ack 40 ------- 0 2.0 0.0 8 23
r 1.141011 1 2 tcp 1540 ------- 0 0.0 2.0 9 16
+ 1.141011 2 1 ack 40 ------- 0 2.0 0.0 9 24
- 1.141011 2 1 ack 40 ------- 0 2.0 0.0 9 24
r 1.141134 1 2 tcp 1540 ------- 0 0.0 2.0 10 17
+ 1.141134 2 1 ack 40 ------- 0 2.0 0.0 10 25
- 1.141134 2 1 ack 40 ------- 0 2.0 0.0 10 25
r 1.141258 1 2 tcp 1540 ------- 0 0.0 2.0 11 18
+ 1.141258 2 1 ack 40 ------- 0 2.0 0.0 11 26
- 1.141258 2 1 ack 40 ------- 0 2.0 0.0 11 26
r 1.141381 1 2 tcp 1540 ------- 0 0.0 2.0 12 19
+ 1.141381 2 1 ack 40 ------- 0 2.0 0.0 12 27
- 1.141381 2 1 ack 40 ------- 0 2.0 0.0 12 27
r 1.141504 1 2 tcp 1540 ------- 0 0.0 2.0 13 20
+ 1.141504 2 1 ack 40 ------- 0 2.0 0.0 13 28
- 1.141504 2 1 ack 40 ------- 0 2.0 0.0 13 28
r 1.150768 2 1 ack 40 ------- 0 2.0 0.0 7 22
+ 1.150768 1 0 ack 40 ------- 0 2.0 0.0 7 22
- 1.150768 1 0 ack 40 ------- 0 2.0 0.0 7 22
r 1.150891 2 1 ack 40 ------- 0 2.0 0.0 8 23
+ 1.150891 1 0 ack 40 ------- 0 2.0 0.0 8 23
- 1.150891 1 0 ack 40 ------- 0 2.0 0.0 8 23
r 1.151014 2 1 ack 40 ------- 0 2.0 0.0 9 24
+ 1.151014 1 0 ack 40 ------- 0 2.0 0.0 9 24
- 1.151014 1 0 ack 40 ------- 0 2.0 0.0 9 24
r 1.151138 2 1 ack 40 ------- 0 2.0 0.0 10 25
+ 1.151138 1 0 ack 40 ------- 0 2.0 0.0 10 25
- 1.151138 1 0 ack 40 ------- 0 2.0 0.0 10 25
r 1.151261 2 1 ack 40 ------- 0 2.0 0.0 11 26
+ 1.151261 1 0 ack 40 ------- 0 2.0 0.0 11 26
- 1.151261 1 0 ack 40 ------- 0 2.0 0.0 11 26
r 1.151384 2 1 ack 40 ------- 0 2.0 0.0 12 27
+ 1.151384 1 0 ack 40 ------- 0 2.0 0.0 12 27
- 1.151384 1 0 ack 40 ------- 0 2.0 0.0 12 27
r 1.151507 2 1 ack 40 ------- 0 2.0 0.0 13 28
+ 1.151507 1 0 ack 40 ------- 0 2.0 0.0 13 28
- 1.151507 1 0 ack 40 ------- 0 2.0 0.0 13 28
r 1.160771 1 0 ack 40 ------- 0 2.0 0.0 7 22
+ 1.160771 0 1 tcp 1540 ------- 0 0.0 2.0 15 29
- 1.160771 0 1 tcp 1540 ------- 0 0.0 2.0 15 29
+ 1.160771 0 1 tcp 1540 ------- 0 0.0 2.0 16 30
r 1.160894 1 0 ack 40 ------- 0 2.0 0.0 8 23
+ 1.160894 0 1 tcp 1540 ------- 0 0.0 2.0 17 31
+ 1.160894 0 1 tcp 1540 ------- 0 0.0 2.0 18 32
- 1.160894 0 1 tcp 1540 ------- 0 0.0 2.0 16 30
r 1.161018 1 0 ack 40 ------- 0 2.0 0.0 9 24
+ 1.161018 0 1 tcp 1540 ------- 0 0.0 2.0 19 33
+ 1.161018 0 1 tcp 1540 ------- 0 0.0 2.0 20 34
- 1.161018 0 1 tcp 1540 ------- 0 0.0 2.0 17 31
r 1.161141 1 0 ack 40 ------- 0 2.0 0.0 10 25
+ 1.161141 0 1 tcp 1540 ------- 0 0.0 2.0 21 35
+ 1.161141 0 1 tcp 1540 ------- 0 0.0 2.0 22 36
d 1.161141 0 1 tcp 1540 ------- 0 0.0 2.0 22 36
- 1.161141 0 1 tcp 1540 ------- 0 0.0 2.0 18 32
r 1.161264 1 0 ack 40 ------- 0 2.0 0.0 11 26
+ 1.161264 0 1 tcp 1540 ------- 0 0.0 2.0 23 37
+ 1.161264 0 1 tcp 1540 ------- 0 0.0 2.0 24 38
d 1.161264 0 1 tcp 1540 ------- 0 0.0 2.0 24 38
- 1.161264 0 1 tcp 1540 ------- 0 0.0 2.0 19 33
r 1.161387 1 0 ack 40 ------- 0 2.0 0.0 12 27
+ 1.161387 0 1 tcp 1540 ------- 0 0.0 2.0 25 39
+ 1.161387 0 1 tcp 1540 ------- 0 0.0 2.0 26 40
d 1.161387 0 1 tcp 1540 ------- 0 0.0 2.0 26 40
- 1.161387 0 1 tcp 1540 ------- 0 0.0 2.0 20 34
r 1.16151 1 0 ack 40 ------- 0 2.0 0.0 13 28
+ 1.16151 0 1 tcp 1540 ------- 0 0.0 2.0 27 41
+ 1.16151 0 1 tcp 1540 ------- 0 0.0 2.0 28 42
d 1.16151 0 1 tcp 1540 ------- 0 0.0 2.0 28 42
- 1.16151 0 1 tcp 1540 ------- 0 0.0 2.0 21 35
- 1.161634 0 1 tcp 1540 ------- 0 0.0 2.0 23 37
- 1.161757 0 1 tcp 1540 ------- 0 0.0 2.0 25 39
- 1.16188 0 1 tcp 1540 ------- 0 0.0 2.0 27 41
r 1.170894 0 1 tcp 1540 ------- 0 0.0 2.0 15 29
+ 1.170894 1 2 tcp 1540 ------- 0 0.0 2.0 15 29
- 1.170894 1 2 tcp 1540 ------- 0 0.0 2.0 15 29
r 1.171018 0 1 tcp 1540 ------- 0 0.0 2.0 16 30
+ 1.171018 1 2 tcp 1540 ------- 0 0.0 2.0 16 30
- 1.171018 1 2 tcp 1540 ------- 0 0.0 2.0 16 30
r 1.171141 0 1 tcp 1540 ------- 0 0.0 2.0 17 31
+ 1.171141 1 2 tcp 1540 ------- 0 0.0 2.0 17 31
- 1.171141 1 2 tcp 1540 ------- 0 0.0 2.0 17 31
r 1.171264 0 1 tcp 1540 ------- 0 0.0 2.0 18 32
+ 1.171264 1 2 tcp 1540 ------- 0 0.0 2.0 18 32
- 1.171264 1 2 tcp 1540 ------- 0 0.0 2.0 18 32
r 1.171387 0 1 tcp 1540 ------- 0 0.0 2.0 19 33
+ 1.171387 1 2 tcp 1540 ------- 0 0.0 2.0 19 33
- 1.171387 1 2 tcp 1540 ------- 0 0.0 2.0 19 33
r 1.17151 0 1 tcp 1540 ------- 0 0.0 2.0 20 34
+ 1.17151 1 2 tcp 1540 ------- 0 0.0 2.0 20 34
- 1.17151 1 2 tcp 1540 ------- 0 0.0 2.0 20 34
r 1.171634 0 1 tcp 1540 ------- 0 0.0 2.0 21 35
+ 1.171634 1 2 tcp 1540 ------- 0 0.0 2.0 21 35
- 1.171634 1 2 tcp 1540 ------- 0 0.0 2.0 21 35
r 1.171757 0 1 tcp 1540 ------- 0 0.0 2.0 23 37
+ 1.171757 1 2 tcp 1540 ------- 0 0.0 2.0 23 37
- 1.171757 1 2 tcp 1540 ------- 0 0.0 2.0 23 37
r 1.17188 0 1 tcp 1540 ------- 0 0.0 2.0 25 39
+ 1.17188 1 2 tcp 1540 ------- 0 0.0 2.0 25 39
- 1.17188 1 2 tcp 1540 ------- 0 0.0 2.0 25 39
r 1.172003 0 1 tcp 1540 ------- 0 0.0 2.0 27 41
+ 1.172003 1 2 tcp 1540 ------- 0 0.0 2.0 27 41
- 1.172003 1 2 tcp 1540 ------- 0 0.0 2.0 27 41
r 1.181018 1 2 tcp 1540 ------- 0 0.0 2.0 15 29
+ 1.181018 2 1 ack 40 ------- 0 2.0 0.0 13 43
- 1.181018 2 1 ack 40 ------- 0 2.0 0.0 13 43
r 1.181141 1 2 tcp 1540 ------- 0 0.0 2.0 16 30
+ 1.181141 2 1 ack 40 ------- 0 2.0 0.0 13 44
- 1.181141 2 1 ack 40 ------- 0 2.0 0.0 13 44
r 1.181264 1 2 tcp 1540 ------- 0 0.0 2.0 17 31
+ 1.181264 2 1 ack 40 ------- 0 2.0 0.0 13 45
- 1.181264 2 1 ack 40 ------- 0 2.0 0.0 13 45
r 1.181387 1 2 tcp 1540 ------- 0 0.0 2.0 18 32
+ 1.181387 2 1 ack 40 ------- 0 2.0 0.0 13 46
- 1.181387 2 1 ack 40 ------- 0 2.0 0.0 13 46
r 1.18151 1 2 tcp 1540 ------- 0 0.0 2.0 19 33
+ 1.18151 2 1 ack 40 ------- 0 2.0 0.0 13 47
- 1.18151 2 1 ack 40 ------- 0 2.0 0.0 13 47
r 1.181634 1 2 tcp 1540 ------- 0 0.0 2.0 20 34
+ 1.181634 2 1 ack 40 ------- 0 2.0 0.0 13 48
- 1.181634 2 1 ack 40 ------- 0 2.0 0.0 13 48
r 1.181757 1 2 tcp 1540 ------- 0 0.0 2.0 21 35
+ 1.181757 2 1 ack 40 ------- 0 2.0 0.0 13 49
- 1.181757 2 1 ack 40 ------- 0 2.0 0.0 13 49
r 1.18188 1 2 tcp 1540 ------- 0 0.0 2.0 23 37
+ 1.18188 2 1 ack 40 ------- 0 2.0 0.0 13 50
- 1.18188 2 1 ack 40 ------- 0 2.0 0.0 13 50
r 1.182003 1 2 tcp 1540 ------- 0 0.0 2.0 25 39
+ 1.182003 2 1 ack 40 ------- 0 2.0 0.0 13 51
- 1.182003 2 1 ack 40 ------- 0 2.0 0.0 13 51
r 1.182126 1 2 tcp 1540 ------- 0 0.0 2.0 27 41
+ 1.182126 2 1 ack 40 ------- 0 2.0 0.0 13 52
- 1.182126 2 1 ack 40 ------- 0 2.0 0.0 13 52
r 1.191021 2 1 ack 40 ------- 0 2.0 0.0 13 43
+ 1.191021 1 0 ack 40 ------- 0 2.0 0.0 13 43
- 1.191021 1 0 ack 40 ------- 0 2.0 0.0 13 43
r 1.191144 2 1 ack 40 ------- 0 2.0 0.0 13 44
+ 1.191144 1 0 ack 40 ------- 0 2.0 0.0 13 44
- 1.191144 1 0 ack 40 ------- 0 2.0 0.0 13 44
r 1.191267 2 1 ack 40 ------- 0 2.0 0.0 13 45
+ 1.191267 1 0 ack 40 ------- 0 2.0 0.0 13 45
- 1.191267 1 0 ack 40 ------- 0 2.0 0.0 13 45
r 1.19139 2 1 ack 40 ------- 0 2.0 0.0 13 46
+ 1.19139 1 0 ack 40 ------- 0 2.0 0.0 13 46
- 1.19139 1 0 ack 40 ------- 0 2.0 0.0 13 46
r 1.191514 2 1 ack 40 ------- 0 2.0 0.0 13 47
+ 1.191514 1 0 ack 40 ------- 0 2.0 0.0 13 47
- 1.191514 1 0 ack 40 ------- 0 2.0 0.0 13 47
r 1.191637 2 1 ack 40 ------- 0 2.0 0.0 13 48
+ 1.191637 1 0 ack 40 ------- 0 2.0 0.0 13 48
- 1.191637 1 0 ack 40 ------- 0 2.0 0.0 13 48
r 1.19176 2 1 ack 40 ------- 0 2.0 0.0 13 49
+ 1.19176 1 0 ack 40 ------- 0 2.0 0.0 13 49
- 1.19176 1 0 ack 40 ------- 0 2.0 0.0 13 49
r 1.191883 2 1 ack 40 ------- 0 2.0 0.0 13 50
+ 1.191883 1 0 ack 40 ------- 0 2.0 0.0 13 50
- 1.191883 1 0 ack 40 ------- 0 2.0 0.0 13 50
r 1.192006 2 1 ack 40 ------- 0 2.0 0.0 13 51
+ 1.192006 1 0 ack 40 ------- 0 2.0 0.0 13 51
- 1.192006 1 0 ack 40 ------- 0 2.0 0.0 13 51
r 1.19213 2 1 ack 40 ------- 0 2.0 0.0 13 52
+ 1.19213 1 0 ack 40 ------- 0 2.0 0.0 13 52
- 1.19213 1 0 ack 40 ------- 0 2.0 0.0 13 52
r 1.201024 1 0 ack 40 ------- 0 2.0 0.0 13 43
+ 1.201024 0 1 tcp 1540 ------- 0 0.0 2.0 29 53
- 1.201024 0 1 tcp 1540 ------- 0 0.0 2.0 29 53
r 1.201147 1 0 ack 40 ------- 0 2.0 0.0 13 44
+ 1.201147 0 1 tcp 1540 ------- 0 0.0 2.0 30 54
- 1.201147 0 1 tcp 1540 ------- 0 0.0 2.0 30 54
r 1.20127 1 0 ack 40 ------- 0 2.0 0.0 13 45
+ 1.20127 0 1 tcp 1540 ---A--- 0 0.0 2.0 14 55
- 1.20127 0 1 tcp 1540 ---A--- 0 0.0 2.0 14 55
r 1.201394 1 0 ack 40 ------- 0 2.0 0.0 13 46
r 1.201517 1 0 ack 40 ------- 0 2.0 0.0 13 47
r 1.20164 1 0 ack 40 ------- 0 2.0 0.0 13 48
r 1.201763 1 0 ack 40 ------- 0 2.0 0.0 13 49
r 1.201886 1 0 ack 40 ------- 0 2.0 0.0 13 50
r 1.20201 1 0 ack 40 ------- 0 2.0 0.0 13 51
r 1.202133 1 0 ack 40 ------- 0 2.0 0.0 13 52
r 1.211147 0 1 tcp 1540 ------- 0 0.0 2.0 29 53
+ 1.211147 1 2 tcp 1540 ------- 0 0.0 2.0 29 53
- 1.211147 1 2 tcp 1540 ------- 0 0.0 2.0 29 53
r 1.21127 0 1 tcp 1540 ------- 0 0.0 2.0 30 54
+ 1.21127 1 2 tcp 1540 ------- 0 0.0 2.0 30 54
- 1.21127 1 2 tcp 1540 ------- 0 0.0 2.0 30 54
r 1.211394 0 1 tcp 1540 ---A--- 0 0.0 2.0 14 55
+ 1.211394 1 2 tcp 1540 ---A--- 0 0.0 2.0 14 55
- 1.211394 1 2 tcp 1540 ---A--- 0 0.0 2.0 14 55
r 1.22127 1 2 tcp 1540 ------- 0 0.0 2.0 29 53
+ 1.22127 2 1 ack 40 ------- 0 2.0 0.0 13 56
- 1.22127 2 1 ack 40 ------- 0 2.0 0.0 13 56
r 1.221394 1 2 tcp 1540 ------- 0 0.0 2.0 30 54
+ 1.221394 2 1 ack 40 ------- 0 2.0 0.0 13 57
- 1.221394 2 1 ack 40 ------- 0 2.0 0.0 13 57
r 1.221517 1 2 tcp 1540 ---A--- 0 0.0 2.0 14 55
+ 1.221517 2 1 ack 40 ------- 0 2.0 0.0 21 58
- 1.221517 2 1 ack 40 ------- 0 2.0 0.0 21 58
r 1.231274 2 1 ack 40 ------- 0 2.0 0.0 13 56
+ 1.231274 1 0 ack 40 ------- 0 2.0 0.0 13 56
- 1.231274 1 0 ack 40 ------- 0 2.0 0.0 13 56
r 1.231397 2 1 ack 40 ------- 0 2.0 0.0 13 57
+ 1.231397 1 0 ack 40 ------- 0 2.0 0.0 13 57
- 1.231397 1 0 ack 40 ------- 0 2.0 0.0 13 57
r 1.23152 2 1 ack 40 ------- 0 2.0 0.0 21 58
+ 1.23152 1 0 ack 40 ------- 0 2.0 0.0 21 58
- 1.23152 1 0 ack 40 ------- 0 2.0 0.0 21 58
r 1.241277 1 0 ack 40 ------- 0 2.0 0.0 13 56
r 1.2414 1 0 ack 40 ------- 0 2.0 0.0 13 57
r 1.241523 1 0 ack 40 ------- 0 2.0 0.0 21 58
+ 1.241523 0 1 tcp 1540 ------- 0 0.0 2.0 22 59
- 1.241523 0 1 tcp 1540 ------- 0 0.0 2.0 22 59
+ 1.241523 0 1 tcp 1540 ------- 0 0.0 2.0 23 60
- 1.241646 0 1 tcp 1540 ------- 0 0.0 2.0 23 60
r 1.251646 0 1 tcp 1540 ------- 0 0.0 2.0 22 59
+ 1.251646 1 2 tcp 1540 ------- 0 0.0 2.0 22 59
- 1.251646 1 2 tcp 1540 ------- 0 0.0 2.0 22 59
r 1.25177 0 1 tcp 1540 ------- 0 0.0 2.0 23 60
+ 1.25177 1 2 tcp 1540 ------- 0 0.0 2.0 23 60
- 1.25177 1 2 tcp 1540 ------- 0 0.0 2.0 23 60
r 1.26177 1 2 tcp 1540 ------- 0 0.0 2.0 22 59
+ 1.26177 2 1 ack 40 ------- 0 2.0 0.0 23 61
- 1.26177 2 1 ack 40 ------- 0 2.0 0.0 23 61
r 1.261893 1 2 tcp 1540 ------- 0 0.0 2.0 23 60
+ 1.261893 2 1 ack 40 ------- 0 2.0 0.0 23 62
- 1.261893 2 1 ack 40 ------- 0 2.0 0.0 23 62
r 1.271773 2 1 ack 40 ------- 0 2.0 0.0 23 61
+ 1.271773 1 0 ack 40 ------- 0 2.0 0.0 23 61
- 1.271773 1 0 ack 40 ------- 0 2.0 0.0 23 61
r 1.271896 2 1 ack 40 ------- 0 2.0 0.0 23 62
+ 1.271896 1 0 ack 40 ------- 0 2.0 0.0 23 62
- 1.271896 1 0 ack 40 ------- 0 2.0 0.0 23 62
r 1.281776 1 0 ack 40 ------- 0 2.0 0.0 23 61
+ 1.281776 0 1 tcp 1540 ------- 0 0.0 2.0 24 63
- 1.281776 0 1 tcp 1540 ------- 0 0.0 2.0 24 63
+ 1.281776 0 1 tcp 1540 ------- 0 0.0 2.0 25 64
+ 1.281776 0 1 tcp 1540 ------- 0 0.0 2.0 26 65
r 1.281899 1 0 ack 40 ------- 0 2.0 0.0 23 62
+ 1.281899 0 1 tcp 1540 ------- 0 0.0 2.0 27 66
- 1.281899 0 1 tcp 1540 ------- 0 0.0 2.0 25 64
- 1.282022 0 1 tcp 1540 ------- 0 0.0 2.0 26 65
- 1.282146 0 1 tcp 1540 ------- 0 0.0 2.0 27 66
r 1.291899 0 1 tcp 1540 ------- 0 0.0 2.0 24 63
+ 1.291899 1 2 tcp 1540 ------- 0 0.0 2.0 24 63
- 1.291899 1 2 tcp 1540 ------- 0 0.0 2.0 24 63
r 1.292022 0 1 tcp 1540 ------- 0 0.0 2.0 25 64
+ 1.292022 1 2 tcp 1540 ------- 0 0.0 2.0 25 64
- 1.292022 1 2 tcp 1540 ------- 0 0.0 2.0 25 64
r 1.292146 0 1 tcp 1540 ------- 0 0.0 2.0 26 65
+ 1.292146 1 2 tcp 1540 ------- 0 0.0 2.0 26 65
- 1.292146 1 2 tcp 1540 ------- 0 0.0 2.0 26 65
r 1.292269 0 1 tcp 1540 ------- 0 0.0 2.0 27 66
+ 1.292269 1 2 tcp 1540 ------- 0 0.0 2.0 27 66
- 1.292269 1 2 tcp 1540 ------- 0 0.0 2.0 27 66
r 1.302022 1 2 tcp 1540 ------- 0 0.0 2.0 24 63
+ 1.302022 2 1 ack 40 ------- 0 2.0 0.0 25 67
- 1.302022 2 1 ack 40 ------- 0 2.0 0.0 25 67
r 1.302146 1 2 tcp 1540 ------- 0 0.0 2.0 25 64
+ 1.302146 2 1 ack 40 ------- 0 2.0 0.0 25 68
- 1.302146 2 1 ack 40 ------- 0 2.0 0.0 25 68
r 1.302269 1 2 tcp 1540 ------- 0 0.0 2.0 26 65
+ 1.302269 2 1 ack 40 ------- 0 2.0 0.0 27 69
- 1.302269 2 1 ack 40 ------- 0 2.0 0.0 27 69
r 1.302392 1 2 tcp 1540 ------- 0 0.0 2.0 27 66
+ 1.302392 2 1 ack 40 ------- 0 2.0 0.0 27 70
- 1.302392 2 1 ack 40 ------- 0 2.0 0.0 27 70
r 1.312026 2 1 ack 40 ------- 0 2.0 0.0 25 67
+ 1.312026 1 0 ack 40 ------- 0 2.0 0.0 25 67
- 1.312026 1 0 ack 40 ------- 0 2.0 0.0 25 67
r 1.312149 2 1 ack 40 ------- 0 2.0 0.0 25 68
+ 1.312149 1 0 ack 40 ------- 0 2.0 0.0 25 68
- 1.312149 1 0 ack 40 ------- 0 2.0 0.0 25 68
r 1.312272 2 1 ack 40 ------- 0 2.0 0.0 27 69
+ 1.312272 1 0 ack 40 ------- 0 2.0 0.0 27 69
- 1.312272 1 0 ack 40 ------- 0 2.0 0.0 27 69
r 1.312395 2 1 ack 40 ------- 0 2.0 0.0 27 70
+ 1.312395 1 0 ack 40 ------- 0 2.0 0.0 27 70
- 1.312395 1 0 ack 40 ------- 0 2.0 0.0 27 70
r 1.322029 1 0 ack 40 ------- 0 2.0 0.0 25 67
+ 1.322029 0 1 tcp 1540 ------- 0 0.0 2.0 28 71
- 1.322029 0 1 tcp 1540 ------- 0 0.0 2.0 28 71
+ 1.322029 0 1 tcp 1540 ------- 0 0.0 2.0 29 72
r 1.322152 1 0 ack 40 ------- 0 2.0 0.0 25 68
+ 1.322152 0 1 tcp 1540 ------- 0 0.0 2.0 30 73
- 1.322152 0 1 tcp 1540 ------- 0 0.0 2.0 29 72
r 1.322275 1 0 ack 40 ------- 0 2.0 0.0 27 69
+ 1.322275 0 1 tcp 1540 ------- 0 0.0 2.0 31 74
+ 1.322275 0 1 tcp 1540 ------- 0 0.0 2.0 32 75
- 1.322275 0 1 tcp 1540 ------- 0 0.0 2.0 30 73
r 1.322398 1 0 ack 40 ------- 0 2.0 0.0 27 70
+ 1.322398 0 1 tcp 1540 ------- 0 0.0 2.0 33 76
- 1.322398 0 1 tcp 1540 ------- 0 0.0 2.0 31 74
- 1.322522 0 1 tcp 1540 ------- 0 0.0 2.0 32 75
- 1.322645 0 1 tcp 1540 ------- 0 0.0 2.0 33 76
r 1.332152 0 1 tcp 1540 ------- 0 0.0 2.0 28 71
+ 1.332152 1 2 tcp 1540 ------- 0 0.0 2.0 28 71
- 1.332152 1 2 tcp 1540 ------- 0 0.0 2.0 28 71
r 1.332275 0 1 tcp 1540 ------- 0 0.0 2.0 29 72
+ 1.332275 1 2 tcp 1540 ------- 0 0.0 2.0 29 72
- 1.332275 1 2 tcp 1540 ------- 0 0.0 2.0 29 72
r 1.332398 0 1 tcp 1540 ------- 0 0.0 2.0 30 73
+ 1.332398 1 2 tcp 1540 ------- 0 0.0 2.0 30 73
- 1.332398 1 2 tcp 1540 ------- 0 0.0 2.0 30 73
r 1.332522 0 1 tcp 1540 ------- 0 0.0 2.0 31 74
+ 1.332522 1 2 tcp 1540 ------- 0 0.0 2.0 31 74
- 1.332522 1 2 tcp 1540 ------- 0 0.0 2.0 31 74
r 1.332645 0 1 tcp 1540 ------- 0 0.0 2.0 32 75
+ 1.332645 1 2 tcp 1540 ------- 0 0.0 2.0 32 75
- 1.332645 1 2 tcp 1540 ------- 0 0.0 2.0 32 75
r 1.332768 0 1 tcp 1540 ------- 0 0.0 2.0 33 76
+ 1.332768 1 2 tcp 1540 ------- 0 0.0 2.0 33 76
- 1.332768 1 2 tcp 1540 ------- 0 0.0 2.0 33 76
r 1.342275 1 2 tcp 1540 ------- 0 0.0 2.0 28 71
+ 1.342275 2 1 ack 40 ------- 0 2.0 0.0 30 77
- 1.342275 2 1 ack 40 ------- 0 2.0 0.0 30 77
r 1.342398 1 2 tcp 1540 ------- 0 0.0 2.0 29 72
+ 1.342398 2 1 ack 40 ------- 0 2.0 0.0 30 78
- 1.342398 2 1 ack 40 ------- 0 2.0 0.0 30 78
r 1.342522 1 2 tcp 1540 ------- 0 0.0 2.0 30 73
+ 1.342522 2 1 ack 40 ------- 0 2.0 0.0 30 79
- 1.342522 2 1 ack 40 ------- 0 2.0 0.0 30 79
r 1.342645 1 2 tcp 1540 ------- 0 0.0 2.0 31 74
+ 1.342645 2 1 ack 40 ------- 0 2.0 0.0 31 80
- 1.342645 2 1 ack 40 ------- 0 2.0 0.0 31 80
r 1.342768 1 2 tcp 1540 ------- 0 0.0 2.0 32 75
+ 1.342768 2 1 ack 40 ------- 0 2.0 0.0 32 81
- 1.342768 2 1 ack 40 ------- 0 2.0 0.0 32 81
r 1.342891 1 2 tcp 1540 ------- 0 0.0 2.0 33 76
+ 1.342891 2 1 ack 40 ------- 0 2.0 0.0 33 82
- 1.342891 2 1 ack 40 ------- 0 2.0 0.0 33 82
r 1.352278 2 1 ack 40 ------- 0 2.0 0.0 30 77
+ 1.352278 1 0 ack 40 ------- 0 2.0 0.0 30 77
- 1.352278 1 0 ack 40 ------- 0 2.0 0.0 30 77
r 1.352402 2 1 ack 40 ------- 0 2.0 0.0 30 78
+ 1.352402 1 0 ack 40 ------- 0 2.0 0.0 30 78
- 1.352402 1 0 ack 40 ------- 0 2.0 0.0 30 78
r 1.352525 2 1 ack 40 ------- 0 2.0 0.0 30 79
+ 1.352525 1 0 ack 40 ------- 0 2.0 0.0 30 79
- 1.352525 1 0 ack 40 ------- 0 2.0 0.0 30 79
r 1.352648 2 1 ack 40 ------- 0 2.0 0.0 31 80
+ 1.352648 1 0 ack 40 ------- 0 2.0 0.0 31 80
- 1.352648 1 0 ack 40 ------- 0 2.0 0.0 31 80
r 1.352771 2 1 ack 40 ------- 0 2.0 0.0 32 81
+ 1.352771 1 0 ack 40 ------- 0 2.0 0.0 32 81
- 1.352771 1 0 ack 40 ------- 0 2.0 0.0 32 81
r 1.352894 2 1 ack 40 ------- 0 2.0 0.0 33 82
+ 1.352894 1 0 ack 40 ------- 0 2.0 0.0 33 82
- 1.352894 1 0 ack 40 ------- 0 2.0 0.0 33 82
r 1.362282 1 0 ack 40 ------- 0 2.0 0.0 30 77
+ 1.362282 0 1 tcp 1540 ------- 0 0.0 2.0 34 83
- 1.362282 0 1 tcp 1540 ------- 0 0.0 2.0 34 83
+ 1.362282 0 1 tcp 1540 ------- 0 0.0 2.0 35 84
+ 1.362282 0 1 tcp 1540 ------- 0 0.0 2.0 36 85
r 1.362405 1 0 ack 40 ------- 0 2.0 0.0 30 78
+ 1.362405 0 1 tcp 1540 ------- 0 0.0 2.0 37 86
- 1.362405 0 1 tcp 1540 ------- 0 0.0 2.0 35 84
r 1.362528 1 0 ack 40 ------- 0 2.0 0.0 30 79
+ 1.362528 0 1 tcp 1540 ------- 0 0.0 2.0 38 87
- 1.362528 0 1 tcp 1540 ------- 0 0.0 2.0 36 85
r 1.362651 1 0 ack 40 ------- 0 2.0 0.0 31 80
- 1.362651 0 1 tcp 1540 ------- 0 0.0 2.0 37 86
r 1.362774 1 0 ack 40 ------- 0 2.0 0.0 32 81
+ 1.362774 0 1 tcp 1540 ------- 0 0.0 2.0 39 88
- 1.362774 0 1 tcp 1540 ------- 0 0.0 2.0 38 87
r 1.362898 1 0 ack 40 ------- 0 2.0 0.0 33 82
+ 1.362898 0 1 tcp 1540 ------- 0 0.0 2.0 40 89
- 1.362898 0 1 tcp 1540 ------- 0 0.0 2.0 39 88
- 1.363021 0 1 tcp 1540 ------- 0 0.0 2.0 40 89
r 1.372405 0 1 tcp 1540 ------- 0 0.0 2.0 34 83
+ 1.372405 1 2 tcp 1540 ------- 0 0.0 2.0 34 83
- 1.372405 1 2 tcp 1540 ------- 0 0.0 2.0 34 83
r 1.372528 0 1 tcp 1540 ------- 0 0.0 2.0 35 84
+ 1.372528 1 2 tcp 1540 ------- 0 0.0 2.0 35 84
- 1.372528 1 2 tcp 1540 ------- 0 0.0 2.0 35 84
r 1.372651 0 1 tcp 1540 ------- 0 0.0 2.0 36 85
+ 1.372651 1 2 tcp 1540 ------- 0 0.0 2.0 36 85
- 1.372651 1 2 tcp 1540 ------- 0 0.0 2.0 36 85
r 1.372774 0 1 tcp 1540 ------- 0 0.0 2.0 37 86
+ 1.372774 1 2 tcp 1540 ------- 0 0.0 2.0 37 86
- 1.372774 1 2 tcp 1540 ------- 0 0.0 2.0 37 86
r 1.372898 0 1 tcp 1540 ------- 0 0.0 2.0 38 87
+ 1.372898 1 2 tcp 1540 ------- 0 0.0 2.0 38 87
- 1.372898 1 2 tcp 1540 ------- 0 0.0 2.0 38 87
r 1.373021 0 1 tcp 1540 ------- 0 0.0 2.0 39 88
+ 1.373021 1 2 tcp 1540 ------- 0 0.0 2.0 39 88
- 1.373021 1 2 tcp 1540 ------- 0 0.0 2.0 39 88
r 1.373144 0 1 tcp 1540 ------- 0 0.0 2.0 40 89
+ 1.373144 1 2 tcp 1540 ------- 0 0.0 2.0 40 89
- 1.373144 1 2 tcp 1540 ------- 0 0.0 2.0 40 89
r 1.382528 1 2 tcp 1540 ------- 0 0.0 2.0 34 83
+ 1.382528 2 1 ack 40 ------- 0 2.0 0.0 34 90
- 1.382528 2 1 ack 40 ------- 0 2.0 0.0 34 90
r 1.382651 1 2 tcp 1540 ------- 0 0.0 2.0 35 84
+ 1.382651 2 1 ack 40 ------- 0 2.0 0.0 35 91
- 1.382651 2 1 ack 40 ------- 0 2.0 0.0 35 91
r 1.382774 1 2 tcp 1540 ------- 0 0.0 2.0 36 85
+ 1.382774 2 1 ack 40 ------- 0 2.0 0.0 36 92
- 1.382774 2 1 ack 40 ------- 0 2.0 0.0 36 92
r 1.382898 1 2 tcp 1540 ------- 0 0.0 2.0 37 86
+ 1.382898 2 1 ack 40 ------- 0 2.0 0.0 37 93
- 1.382898 2 1 ack 40 ------- 0 2.0 0.0 37 93
r 1.383021 1 2 tcp 1540 ------- 0 0.0 2.0 38 87
+ 1.383021 2 1 ack 40 ------- 0 2.0 0.0 38 94
- 1.383021 2 1 ack 40 ------- 0 2.0 0.0 38 94
r 1.383144 1 2 tcp 1540 ------- 0 0.0 2.0 39 88
+ 1.383144 2 1 ack 40 ------- 0 2.0 0.0 39 95
- 1.383144 2 1 ack 40 ------- 0 2.0 0.0 39 95
r 1.383267 1 2 tcp 1540 ------- 0 0.0 2.0 40 89
+ 1.383267 2 1 ack 40 ------- 0 2.0 0.0 40 96
- 1.383267 2 1 ack 40 ------- 0 2.0 0.0 40 96
r 1.392531 2 1 ack 40 ------- 0 2.0 0.0 34 90
+ 1.392531 1 0 ack 40 ------- 0 2.0 0.0 34 90
- 1.392531 1 0 ack 40 ------- 0 2.0 0.0 34 90
r 1.392654 2 1 ack 40 ------- 0 2.0 0.0 35 91
+ 1.392654 1 0 ack 40 ------- 0 2.0 0.0 35 91
- 1.392654 1 0 ack 40 ------- 0 2.0 0.0 35 91
r 1.392778 2 1 ack 40 ------- 0 2.0 0.0 36 92
+ 1.392778 1 0 ack 40 ------- 0 2.0 0.0 36 92
- 1.392778 1 0 ack 40 ------- 0 2.0 0.0 36 92
r 1.392901 2 1 ack 40 ------- 0 2.0 0.0 37 93
+ 1.392901 1 0 ack 40 ------- 0 2.0 0.0 37 93
- 1.392901 1 0 ack 40 ------- 0 2.0 0.0 37 93
r 1.393024 2 1 ack 40 ------- 0 2.0 0.0 38 94
+ 1.393024 1 0 ack 40 ------- 0 2.0 0.0 38 94
- 1.393024 1 0 ack 40 ------- 0 2.0 0.0 38 94
r 1.393147 2 1 ack 40 ------- 0 2.0 0.0 39 95
+ 1.393147 1 0 ack 40 ------- 0 2.0 0.0 39 95
- 1.393147 1 0 ack 40 ------- 0 2.0 0.0 39 95
r 1.39327 2 1 ack 40 ------- 0 2.0 0.0 40 96
+ 1.39327 1 0 ack 40 ------- 0 2.0 0.0 40 96
- 1.39327 1 0 ack 40 ------- 0 2.0 0.0 40 96
r 1.402534 1 0 ack 40 ------- 0 2.0 0.0 34 90
+ 1.402534 0 1 tcp 1540 ------- 0 0.0 2.0 41 97
- 1.402534 0 1 tcp 1540 ------- 0 0.0 2.0 41 97
r 1.402658 1 0 ack 40 ------- 0 2.0 0.0 35 91
+ 1.402658 0 1 tcp 1540 ------- 0 0.0 2.0 42 98
- 1.402658 0 1 tcp 1540 ------- 0 0.0 2.0 42 98
r 1.402781 1 0 ack 40 ------- 0 2.0 0.0 36 92
+ 1.402781 0 1 tcp 1540 ------- 0 0.0 2.0 43 99
- 1.402781 0 1 tcp 1540 ------- 0 0.0 2.0 43 99
r 1.402904 1 0 ack 40 ------- 0 2.0 0.0 37 93
+ 1.402904 0 1 tcp 1540 ------- 0 0.0 2.0 44 100
- 1.402904 0 1 tcp 1540 ------- 0 0.0 2.0 44 100
r 1.403027 1 0 ack 40 ------- 0 2.0 0.0 38 94
+ 1.403027 0 1 tcp 1540 ------- 0 0.0 2.0 45 101
- 1.403027 0 1 tcp 1540 ------- 0 0.0 2.0 45 101
r 1.40315 1 0 ack 40 ------- 0 2.0 0.0 39 95
+ 1.40315 0 1 tcp 1540 ------- 0 0.0 2.0 46 102
+ 1.40315 0 1 tcp 1540 ------- 0 0.0 2.0 47 103
- 1.40315 0 1 tcp 1540 ------- 0 0.0 2.0 46 102
r 1.403274 1 0 ack 40 ------- 0 2.0 0.0 40 96
+ 1.403274 0 1 tcp 1540 ------- 0 0.0 2.0 48 104
- 1.403274 0 1 tcp 1540 ------- 0 0.0 2.0 47 103
- 1.403397 0 1 tcp 1540 ------- 0 0.0 2.0 48 104
r 1.412658 0 1 tcp 1540 ------- 0 0.0 2.0 41 97
+ 1.412658 1 2 tcp 1540 ------- 0 0.0 2.0 41 97
- 1.412658 1 2 tcp 1540 ------- 0 0.0 2.0 41 97
r 1.412781 0 1 tcp 1540 ------- 0 0.0 2.0 42 98
+ 1.412781 1 2 tcp 1540 ------- 0 0.0 2.0 42 98
- 1.412781 1 2 tcp 1540 ------- 0 0.0 2.0 42 98
r 1.412904 0 1 tcp 1540 ------- 0 0.0 2.0 43 99
+ 1.412904 1 2 tcp 1540 ------- 0 0.0 2.0 43 99
- 1.412904 1 2 tcp 1540 ------- 0 0.0 2.0 43 99
r 1.413027 0 1 tcp 1540 ------- 0 0.0 2.0 44 100
+ 1.413027 1 2 tcp 1540 ------- 0 0.0 2.0 44 100
- 1.413027 1 2 tcp 1540 ------- 0 0.0 2.0 44 100
r 1.41315 0 1 tcp 1540 ------- 0 0.0 2.0 45 101
+ 1.41315 1 2 tcp 1540 ------- 0 0.0 2.0 45 101
- 1.41315 1 2 tcp 1540 ------- 0 0.0 2.0 45 101
r 1.413274 0 1 tcp 1540 ------- 0 0.0 2.0 46 102
+ 1.413274 1 2 tcp 1540 ------- 0 0.0 2.0 46 102
- 1.413274 1 2 tcp 1540 ------- 0 0.0 2.0 46 102
r 1.413397 0 1 tcp 1540 ------- 0 0.0 2.0 47 103
+ 1.413397 1 2 tcp 1540 ------- 0 0.0 2.0 47 103
- 1.413397 1 2 tcp 1540 ------- 0 0.0 2.0 47 103
r 1.41352 0 1 tcp 1540 ------- 0 0.0 2.0 48 104
+ 1.41352 1 2 tcp 1540 ------- 0 0.0 2.0 48 104
- 1.41352 1 2 tcp 1540 ------- 0 0.0 2.0 48 104
r 1.422781 1 2 tcp 1540 ------- 0 0.0 2.0 41 97
+ 1.422781 2 1 ack 40 ------- 0 2.0 0.0 41 105
- 1.422781 2 1 ack 40 ------- 0 2.0 0.0 41 105
r 1.422904 1 2 tcp 1540 ------- 0 0.0 2.0 42 98
+ 1.422904 2 1 ack 40 ------- 0 2.0 0.0 42 106
- 1.422904 2 1 ack 40 ------- 0 2.0 0.0 42 106
r 1.423027 1 2 tcp 1540 ------- 0 0.0 2.0 43 99
+ 1.423027 2 1 ack 40 ------- 0 2.0 0.0 43 107
- 1.423027 2 1 ack 40 ------- 0 2.0 0.0 43 107
r 1.42315 1 2 tcp 1540 ------- 0 0.0 2.0 44 100
+ 1.42315 2 1 ack 40 ------- 0 2.0 0.0 44 108
- 1.42315 2 1 ack 40 ------- 0 2.0 0.0 44 108
r 1.423274 1 2 tcp 1540 ------- 0 0.0 2.0 45 101
+ 1.423274 2 1 ack 40 ------- 0 2.0 0.0 45 109
- 1.423274 2 1 ack 40 ------- 0 2.0 0.0 45 109
r 1.423397 1 2 tcp 1540 ------- 0 0.0 2.0 46 102
+ 1.423397 2 1 ack 40 ------- 0 2.0 0.0 46 110
- 1.423397 2 1 ack 40 ------- 0 2.0 0.0 46 110
r 1.42352 1 2 tcp 1540 ------- 0 0.0 2.0 47 103
+ 1.42352 2 1 ack 40 ------- 0 2.0 0.0 47 111
- 1.42352 2 1 ack 40 ------- 0 2.0 0.0 47 111
r 1.423643 1 2 tcp 1540 ------- 0 0.0 2.0 48 104
+ 1.423643 2 1 ack 40 ------- 0 2.0 0.0 48 112
- 1.423643 2 1 ack 40 ------- 0 2.0 0.0 48 112
r 1.432784 2 1 ack 40 ------- 0 2.0 0.0 41 105
+ 1.432784 1 0 ack 40 ------- 0 2.0 0.0 41 105
- 1.432784 1 0 ack 40 ------- 0 2.0 0.0 41 105
r 1.432907 2 1 ack 40 ------- 0 2.0 0.0 42 106
+ 1.432907 1 0 ack 40 ------- 0 2.0 0.0 42 106
- 1.432907 1 0 ack 40 ------- 0 2.0 0.0 42 106
r 1.43303 2 1 ack 40 ------- 0 2.0 0.0 43 107
+ 1.43303 1 0 ack 40 ------- 0 2.0 0.0 43 107
- 1.43303 1 0 ack 40 ------- 0 2.0 0.0 43 107
r 1.433154 2 1 ack 40 ------- 0 2.0 0.0 44 108
+ 1.433154 1 0 ack 40 ------- 0 2.0 0.0 44 108
- 1.433154 1 0 ack 40 ------- 0 2.0 0.0 44 108
r 1.433277 2 1 ack 40 ------- 0 2.0 0.0 45 109
+ 1.433277 1 0 ack 40 ------- 0 2.0 0.0 45 109
- 1.433277 1 0 ack 40 ------- 0 2.0 0.0 45 109
r 1.4334 2 1 ack 40 ------- 0 2.0 0.0 46 110