+ 0.1 0 1 ping 50000 ------- 1 0.0 5.0 -1 0
- 0.1 0 1 ping 50000 ------- 1 0.0 5.0 -1 0
+ 0.1 5 4 ping 50000 ------- 2 5.0 0.0 -1 1
- 0.1 5 4 ping 50000 ------- 2 5.0 0.0 -1 1
r 0.114 0 1 ping 50000 ------- 1 0.0 5.0 -1 0
+ 0.114 1 2 ping 50000 ------- 1 0.0 5.0 -1 0
- 0.114 1 2 ping 50000 ------- 1 0.0 5.0 -1 0
r 0.132 1 2 ping 50000 ------- 1 0.0 5.0 -1 0
+ 0.132 2 3 ping 50000 ------- 1 0.0 5.0 -1 0
- 0.132 2 3 ping 50000 ------- 1 0.0 5.0 -1 0
r 0.15 5 4 ping 50000 ------- 2 5.0 0.0 -1 1
+ 0.15 4 3 ping 50000 ------- 2 5.0 0.0 -1 1
- 0.15 4 3 ping 50000 ------- 2 5.0 0.0 -1 1
+ 0.2 0 1 ping 50000 ------- 1 0.0 5.0 -1 2
- 0.2 0 1 ping 50000 ------- 1 0.0 5.0 -1 2
+ 0.2 5 4 ping 50000 ------- 2 5.0 0.0 -1 3
- 0.2 5 4 ping 50000 ------- 2 5.0 0.0 -1 3
r 0.214 0 1 ping 50000 ------- 1 0.0 5.0 -1 2
+ 0.214 1 2 ping 50000 ------- 1 0.0 5.0 -1 2
- 0.214 1 2 ping 50000 ------- 1 0.0 5.0 -1 2
r 0.232 1 2 ping 50000 ------- 1 0.0 5.0 -1 2
+ 0.232 2 3 ping 50000 ------- 1 0.0 5.0 -1 2
r 0.25 5 4 ping 50000 ------- 2 5.0 0.0 -1 3
+ 0.25 4 3 ping 50000 ------- 2 5.0 0.0 -1 3
+ 0.3 0 1 ping 50000 ------- 1 0.0 5.0 -1 4
- 0.3 0 1 ping 50000 ------- 1 0.0 5.0 -1 4
+ 0.3 5 4 ping 50000 ------- 2 5.0 0.0 -1 5
- 0.3 5 4 ping 50000 ------- 2 5.0 0.0 -1 5
r 0.314 0 1 ping 50000 ------- 1 0.0 5.0 -1 4
+ 0.314 1 2 ping 50000 ------- 1 0.0 5.0 -1 4
- 0.314 1 2 ping 50000 ------- 1 0.0 5.0 -1 4
r 0.332 1 2 ping 50000 ------- 1 0.0 5.0 -1 4
+ 0.332 2 3 ping 50000 ------- 1 0.0 5.0 -1 4
r 0.35 5 4 ping 50000 ------- 2 5.0 0.0 -1 5
+ 0.35 4 3 ping 50000 ------- 2 5.0 0.0 -1 5
+ 0.4 0 1 ping 50000 ------- 1 0.0 5.0 -1 6
- 0.4 0 1 ping 50000 ------- 1 0.0 5.0 -1 6
+ 0.4 5 4 ping 50000 ------- 2 5.0 0.0 -1 7
- 0.4 5 4 ping 50000 ------- 2 5.0 0.0 -1 7
r 0.414 0 1 ping 50000 ------- 1 0.0 5.0 -1 6
+ 0.414 1 2 ping 50000 ------- 1 0.0 5.0 -1 6
- 0.414 1 2 ping 50000 ------- 1 0.0 5.0 -1 6
r 0.432 1 2 ping 50000 ------- 1 0.0 5.0 -1 6
+ 0.432 2 3 ping 50000 ------- 1 0.0 5.0 -1 6
r 0.45 5 4 ping 50000 ------- 2 5.0 0.0 -1 7
+ 0.45 4 3 ping 50000 ------- 2 5.0 0.0 -1 7
+ 0.5 0 1 ping 50000 ------- 1 0.0 5.0 -1 8
- 0.5 0 1 ping 50000 ------- 1 0.0 5.0 -1 8
+ 0.5 5 4 ping 50000 ------- 2 5.0 0.0 -1 9
- 0.5 5 4 ping 50000 ------- 2 5.0 0.0 -1 9
r 0.514 0 1 ping 50000 ------- 1 0.0 5.0 -1 8
+ 0.514 1 2 ping 50000 ------- 1 0.0 5.0 -1 8
- 0.514 1 2 ping 50000 ------- 1 0.0 5.0 -1 8
- 0.532 2 3 ping 50000 ------- 1 0.0 5.0 -1 2
r 0.532 1 2 ping 50000 ------- 1 0.0 5.0 -1 8
+ 0.532 2 3 ping 50000 ------- 1 0.0 5.0 -1 8
r 0.542 2 3 ping 50000 ------- 1 0.0 5.0 -1 0
+ 0.542 3 4 ping 50000 ------- 1 0.0 5.0 -1 0
- 0.542 3 4 ping 50000 ------- 1 0.0 5.0 -1 0
- 0.55 4 3 ping 50000 ------- 2 5.0 0.0 -1 3
r 0.55 5 4 ping 50000 ------- 2 5.0 0.0 -1 9
+ 0.55 4 3 ping 50000 ------- 2 5.0 0.0 -1 9
r 0.56 4 3 ping 50000 ------- 2 5.0 0.0 -1 1
+ 0.56 3 2 ping 50000 ------- 2 5.0 0.0 -1 1
- 0.56 3 2 ping 50000 ------- 2 5.0 0.0 -1 1
+ 0.6 0 1 ping 50000 ------- 1 0.0 5.0 -1 10
- 0.6 0 1 ping 50000 ------- 1 0.0 5.0 -1 10
+ 0.6 5 4 ping 50000 ------- 2 5.0 0.0 -1 11
- 0.6 5 4 ping 50000 ------- 2 5.0 0.0 -1 11
r 0.614 0 1 ping 50000 ------- 1 0.0 5.0 -1 10
+ 0.614 1 2 ping 50000 ------- 1 0.0 5.0 -1 10
- 0.614 1 2 ping 50000 ------- 1 0.0 5.0 -1 10
r 0.632 1 2 ping 50000 ------- 1 0.0 5.0 -1 10
+ 0.632 2 3 ping 50000 ------- 1 0.0 5.0 -1 10
r 0.65 5 4 ping 50000 ------- 2 5.0 0.0 -1 11
+ 0.65 4 3 ping 50000 ------- 2 5.0 0.0 -1 11
+ 0.7 0 1 ping 50000 ------- 1 0.0 5.0 -1 12
- 0.7 0 1 ping 50000 ------- 1 0.0 5.0 -1 12
+ 0.7 5 4 ping 50000 ------- 2 5.0 0.0 -1 13
- 0.7 5 4 ping 50000 ------- 2 5.0 0.0 -1 13
r 0.714 0 1 ping 50000 ------- 1 0.0 5.0 -1 12
+ 0.714 1 2 ping 50000 ------- 1 0.0 5.0 -1 12
- 0.714 1 2 ping 50000 ------- 1 0.0 5.0 -1 12
r 0.732 1 2 ping 50000 ------- 1 0.0 5.0 -1 12
+ 0.732 2 3 ping 50000 ------- 1 0.0 5.0 -1 12
d 0.732 2 3 ping 50000 ------- 1 0.0 5.0 -1 12
r 0.75 5 4 ping 50000 ------- 2 5.0 0.0 -1 13
+ 0.75 4 3 ping 50000 ------- 2 5.0 0.0 -1 13
+ 0.9 0 1 ping 50000 ------- 1 0.0 5.0 -1 14
- 0.9 0 1 ping 50000 ------- 1 0.0 5.0 -1 14
+ 0.9 5 4 ping 50000 ------- 2 5.0 0.0 -1 15
- 0.9 5 4 ping 50000 ------- 2 5.0 0.0 -1 15
r 0.914 0 1 ping 50000 ------- 1 0.0 5.0 -1 14
+ 0.914 1 2 ping 50000 ------- 1 0.0 5.0 -1 14
- 0.914 1 2 ping 50000 ------- 1 0.0 5.0 -1 14
- 0.932 2 3 ping 50000 ------- 1 0.0 5.0 -1 4
r 0.932 1 2 ping 50000 ------- 1 0.0 5.0 -1 14
+ 0.932 2 3 ping 50000 ------- 1 0.0 5.0 -1 14
r 0.942 2 3 ping 50000 ------- 1 0.0 5.0 -1 2
+ 0.942 3 4 ping 50000 ------- 1 0.0 5.0 -1 2
- 0.942 3 4 ping 50000 ------- 1 0.0 5.0 -1 2
- 0.95 4 3 ping 50000 ------- 2 5.0 0.0 -1 5
r 0.95 5 4 ping 50000 ------- 2 5.0 0.0 -1 15
+ 0.95 4 3 ping 50000 ------- 2 5.0 0.0 -1 15
r 0.952 3 4 ping 50000 ------- 1 0.0 5.0 -1 0
+ 0.952 4 5 ping 50000 ------- 1 0.0 5.0 -1 0
- 0.952 4 5 ping 50000 ------- 1 0.0 5.0 -1 0
r 0.96 4 3 ping 50000 ------- 2 5.0 0.0 -1 3
+ 0.96 3 2 ping 50000 ------- 2 5.0 0.0 -1 3
- 0.96 3 2 ping 50000 ------- 2 5.0 0.0 -1 3
r 0.97 3 2 ping 50000 ------- 2 5.0 0.0 -1 1
+ 0.97 2 1 ping 50000 ------- 2 5.0 0.0 -1 1
- 0.97 2 1 ping 50000 ------- 2 5.0 0.0 -1 1
r 0.988 2 1 ping 50000 ------- 2 5.0 0.0 -1 1
+ 0.988 1 0 ping 50000 ------- 2 5.0 0.0 -1 1
- 0.988 1 0 ping 50000 ------- 2 5.0 0.0 -1 1
+ 1 0 1 ping 50000 ------- 1 0.0 5.0 -1 16
- 1 0 1 ping 50000 ------- 1 0.0 5.0 -1 16
+ 1 5 4 ping 50000 ------- 2 5.0 0.0 -1 17
- 1 5 4 ping 50000 ------- 2 5.0 0.0 -1 17
r 1.002 4 5 ping 50000 ------- 1 0.0 5.0 -1 0
+ 1.002 5 4 ping 50000 ------- 2 5.0 0.0 -1 18
r 1.002 1 0 ping 50000 ------- 2 5.0 0.0 -1 1
+ 1.002 0 1 ping 50000 ------- 1 0.0 5.0 -1 19
- 1.004 0 1 ping 50000 ------- 1 0.0 5.0 -1 19
r 1.014 0 1 ping 50000 ------- 1 0.0 5.0 -1 16
+ 1.014 1 2 ping 50000 ------- 1 0.0 5.0 -1 16
- 1.014 1 2 ping 50000 ------- 1 0.0 5.0 -1 16
r 1.018 0 1 ping 50000 ------- 1 0.0 5.0 -1 19
+ 1.018 1 2 ping 50000 ------- 1 0.0 5.0 -1 19
- 1.022 1 2 ping 50000 ------- 1 0.0 5.0 -1 19
r 1.032 1 2 ping 50000 ------- 1 0.0 5.0 -1 16
+ 1.032 2 3 ping 50000 ------- 1 0.0 5.0 -1 16
d 1.032 2 3 ping 50000 ------- 1 0.0 5.0 -1 16
- 1.04 5 4 ping 50000 ------- 2 5.0 0.0 -1 18
r 1.04 1 2 ping 50000 ------- 1 0.0 5.0 -1 19
+ 1.04 2 3 ping 50000 ------- 1 0.0 5.0 -1 19
d 1.04 2 3 ping 50000 ------- 1 0.0 5.0 -1 19
r 1.05 5 4 ping 50000 ------- 2 5.0 0.0 -1 17
+ 1.05 4 3 ping 50000 ------- 2 5.0 0.0 -1 17
r 1.09 5 4 ping 50000 ------- 2 5.0 0.0 -1 18
+ 1.09 4 3 ping 50000 ------- 2 5.0 0.0 -1 18
- 1.332 2 3 ping 50000 ------- 1 0.0 5.0 -1 6
r 1.342 2 3 ping 50000 ------- 1 0.0 5.0 -1 4
+ 1.342 3 4 ping 50000 ------- 1 0.0 5.0 -1 4
- 1.342 3 4 ping 50000 ------- 1 0.0 5.0 -1 4
- 1.35 4 3 ping 50000 ------- 2 5.0 0.0 -1 7
r 1.352 3 4 ping 50000 ------- 1 0.0 5.0 -1 2
+ 1.352 4 5 ping 50000 ------- 1 0.0 5.0 -1 2
- 1.352 4 5 ping 50000 ------- 1 0.0 5.0 -1 2
r 1.36 4 3 ping 50000 ------- 2 5.0 0.0 -1 5
+ 1.36 3 2 ping 50000 ------- 2 5.0 0.0 -1 5
- 1.36 3 2 ping 50000 ------- 2 5.0 0.0 -1 5
r 1.37 3 2 ping 50000 ------- 2 5.0 0.0 -1 3
+ 1.37 2 1 ping 50000 ------- 2 5.0 0.0 -1 3
- 1.37 2 1 ping 50000 ------- 2 5.0 0.0 -1 3
r 1.388 2 1 ping 50000 ------- 2 5.0 0.0 -1 3
+ 1.388 1 0 ping 50000 ------- 2 5.0 0.0 -1 3
- 1.388 1 0 ping 50000 ------- 2 5.0 0.0 -1 3
r 1.402 4 5 ping 50000 ------- 1 0.0 5.0 -1 2
+ 1.402 5 4 ping 50000 ------- 2 5.0 0.0 -1 20
- 1.402 5 4 ping 50000 ------- 2 5.0 0.0 -1 20
r 1.402 1 0 ping 50000 ------- 2 5.0 0.0 -1 3
+ 1.402 0 1 ping 50000 ------- 1 0.0 5.0 -1 21
- 1.402 0 1 ping 50000 ------- 1 0.0 5.0 -1 21
r 1.416 0 1 ping 50000 ------- 1 0.0 5.0 -1 21
+ 1.416 1 2 ping 50000 ------- 1 0.0 5.0 -1 21
- 1.416 1 2 ping 50000 ------- 1 0.0 5.0 -1 21
r 1.434 1 2 ping 50000 ------- 1 0.0 5.0 -1 21
+ 1.434 2 3 ping 50000 ------- 1 0.0 5.0 -1 21
r 1.452 5 4 ping 50000 ------- 2 5.0 0.0 -1 20
+ 1.452 4 3 ping 50000 ------- 2 5.0 0.0 -1 20
- 1.732 2 3 ping 50000 ------- 1 0.0 5.0 -1 8
r 1.742 2 3 ping 50000 ------- 1 0.0 5.0 -1 6
+ 1.742 3 4 ping 50000 ------- 1 0.0 5.0 -1 6
- 1.742 3 4 ping 50000 ------- 1 0.0 5.0 -1 6
- 1.75 4 3 ping 50000 ------- 2 5.0 0.0 -1 9
r 1.752 3 4 ping 50000 ------- 1 0.0 5.0 -1 4
+ 1.752 4 5 ping 50000 ------- 1 0.0 5.0 -1 4
- 1.752 4 5 ping 50000 ------- 1 0.0 5.0 -1 4
r 1.76 4 3 ping 50000 ------- 2 5.0 0.0 -1 7
+ 1.76 3 2 ping 50000 ------- 2 5.0 0.0 -1 7
- 1.76 3 2 ping 50000 ------- 2 5.0 0.0 -1 7
r 1.77 3 2 ping 50000 ------- 2 5.0 0.0 -1 5
+ 1.77 2 1 ping 50000 ------- 2 5.0 0.0 -1 5
- 1.77 2 1 ping 50000 ------- 2 5.0 0.0 -1 5
r 1.788 2 1 ping 50000 ------- 2 5.0 0.0 -1 5
+ 1.788 1 0 ping 50000 ------- 2 5.0 0.0 -1 5
- 1.788 1 0 ping 50000 ------- 2 5.0 0.0 -1 5
r 1.802 1 0 ping 50000 ------- 2 5.0 0.0 -1 5
+ 1.802 0 1 ping 50000 ------- 1 0.0 5.0 -1 22
- 1.802 0 1 ping 50000 ------- 1 0.0 5.0 -1 22
r 1.802 4 5 ping 50000 ------- 1 0.0 5.0 -1 4
+ 1.802 5 4 ping 50000 ------- 2 5.0 0.0 -1 23
- 1.802 5 4 ping 50000 ------- 2 5.0 0.0 -1 23
r 1.816 0 1 ping 50000 ------- 1 0.0 5.0 -1 22
+ 1.816 1 2 ping 50000 ------- 1 0.0 5.0 -1 22
- 1.816 1 2 ping 50000 ------- 1 0.0 5.0 -1 22
r 1.834 1 2 ping 50000 ------- 1 0.0 5.0 -1 22
+ 1.834 2 3 ping 50000 ------- 1 0.0 5.0 -1 22
r 1.852 5 4 ping 50000 ------- 2 5.0 0.0 -1 23
+ 1.852 4 3 ping 50000 ------- 2 5.0 0.0 -1 23
- 2.132 2 3 ping 50000 ------- 1 0.0 5.0 -1 10
r 2.142 2 3 ping 50000 ------- 1 0.0 5.0 -1 8
+ 2.142 3 4 ping 50000 ------- 1 0.0 5.0 -1 8
- 2.142 3 4 ping 50000 ------- 1 0.0 5.0 -1 8
- 2.15 4 3 ping 50000 ------- 2 5.0 0.0 -1 11
r 2.152 3 4 ping 50000 ------- 1 0.0 5.0 -1 6
+ 2.152 4 5 ping 50000 ------- 1 0.0 5.0 -1 6
- 2.152 4 5 ping 50000 ------- 1 0.0 5.0 -1 6
r 2.16 4 3 ping 50000 ------- 2 5.0 0.0 -1 9
+ 2.16 3 2 ping 50000 ------- 2 5.0 0.0 -1 9
- 2.16 3 2 ping 50000 ------- 2 5.0 0.0 -1 9
r 2.17 3 2 ping 50000 ------- 2 5.0 0.0 -1 7
+ 2.17 2 1 ping 50000 ------- 2 5.0 0.0 -1 7
- 2.17 2 1 ping 50000 ------- 2 5.0 0.0 -1 7
r 2.188 2 1 ping 50000 ------- 2 5.0 0.0 -1 7
+ 2.188 1 0 ping 50000 ------- 2 5.0 0.0 -1 7
- 2.188 1 0 ping 50000 ------- 2 5.0 0.0 -1 7
r 2.202 4 5 ping 50000 ------- 1 0.0 5.0 -1 6
+ 2.202 5 4 ping 50000 ------- 2 5.0 0.0 -1 24
- 2.202 5 4 ping 50000 ------- 2 5.0 0.0 -1 24
r 2.202 1 0 ping 50000 ------- 2 5.0 0.0 -1 7
+ 2.202 0 1 ping 50000 ------- 1 0.0 5.0 -1 25
- 2.202 0 1 ping 50000 ------- 1 0.0 5.0 -1 25
r 2.216 0 1 ping 50000 ------- 1 0.0 5.0 -1 25
+ 2.216 1 2 ping 50000 ------- 1 0.0 5.0 -1 25
- 2.216 1 2 ping 50000 ------- 1 0.0 5.0 -1 25
r 2.234 1 2 ping 50000 ------- 1 0.0 5.0 -1 25
+ 2.234 2 3 ping 50000 ------- 1 0.0 5.0 -1 25
r 2.252 5 4 ping 50000 ------- 2 5.0 0.0 -1 24
+ 2.252 4 3 ping 50000 ------- 2 5.0 0.0 -1 24
- 2.532 2 3 ping 50000 ------- 1 0.0 5.0 -1 14
r 2.542 2 3 ping 50000 ------- 1 0.0 5.0 -1 10
+ 2.542 3 4 ping 50000 ------- 1 0.0 5.0 -1 10
- 2.542 3 4 ping 50000 ------- 1 0.0 5.0 -1 10
- 2.55 4 3 ping 50000 ------- 2 5.0 0.0 -1 13
r 2.552 3 4 ping 50000 ------- 1 0.0 5.0 -1 8
+ 2.552 4 5 ping 50000 ------- 1 0.0 5.0 -1 8
- 2.552 4 5 ping 50000 ------- 1 0.0 5.0 -1 8
r 2.56 4 3 ping 50000 ------- 2 5.0 0.0 -1 11
+ 2.56 3 2 ping 50000 ------- 2 5.0 0.0 -1 11
- 2.56 3 2 ping 50000 ------- 2 5.0 0.0 -1 11
r 2.57 3 2 ping 50000 ------- 2 5.0 0.0 -1 9
+ 2.57 2 1 ping 50000 ------- 2 5.0 0.0 -1 9
- 2.57 2 1 ping 50000 ------- 2 5.0 0.0 -1 9
r 2.588 2 1 ping 50000 ------- 2 5.0 0.0 -1 9
+ 2.588 1 0 ping 50000 ------- 2 5.0 0.0 -1 9
- 2.588 1 0 ping 50000 ------- 2 5.0 0.0 -1 9
r 2.602 1 0 ping 50000 ------- 2 5.0 0.0 -1 9
+ 2.602 0 1 ping 50000 ------- 1 0.0 5.0 -1 26
- 2.602 0 1 ping 50000 ------- 1 0.0 5.0 -1 26
r 2.602 4 5 ping 50000 ------- 1 0.0 5.0 -1 8
+ 2.602 5 4 ping 50000 ------- 2 5.0 0.0 -1 27
- 2.602 5 4 ping 50000 ------- 2 5.0 0.0 -1 27
r 2.616 0 1 ping 50000 ------- 1 0.0 5.0 -1 26
+ 2.616 1 2 ping 50000 ------- 1 0.0 5.0 -1 26
- 2.616 1 2 ping 50000 ------- 1 0.0 5.0 -1 26
r 2.634 1 2 ping 50000 ------- 1 0.0 5.0 -1 26
+ 2.634 2 3 ping 50000 ------- 1 0.0 5.0 -1 26
r 2.652 5 4 ping 50000 ------- 2 5.0 0.0 -1 27
+ 2.652 4 3 ping 50000 ------- 2 5.0 0.0 -1 27
- 2.932 2 3 ping 50000 ------- 1 0.0 5.0 -1 21
r 2.942 2 3 ping 50000 ------- 1 0.0 5.0 -1 14
+ 2.942 3 4 ping 50000 ------- 1 0.0 5.0 -1 14
- 2.942 3 4 ping 50000 ------- 1 0.0 5.0 -1 14
- 2.95 4 3 ping 50000 ------- 2 5.0 0.0 -1 15
r 2.952 3 4 ping 50000 ------- 1 0.0 5.0 -1 10
+ 2.952 4 5 ping 50000 ------- 1 0.0 5.0 -1 10
- 2.952 4 5 ping 50000 ------- 1 0.0 5.0 -1 10
r 2.96 4 3 ping 50000 ------- 2 5.0 0.0 -1 13
+ 2.96 3 2 ping 50000 ------- 2 5.0 0.0 -1 13
- 2.96 3 2 ping 50000 ------- 2 5.0 0.0 -1 13
r 2.97 3 2 ping 50000 ------- 2 5.0 0.0 -1 11
+ 2.97 2 1 ping 50000 ------- 2 5.0 0.0 -1 11
- 2.97 2 1 ping 50000 ------- 2 5.0 0.0 -1 11
r 2.988 2 1 ping 50000 ------- 2 5.0 0.0 -1 11
+ 2.988 1 0 ping 50000 ------- 2 5.0 0.0 -1 11
- 2.988 1 0 ping 50000 ------- 2 5.0 0.0 -1 11
r 3.002 1 0 ping 50000 ------- 2 5.0 0.0 -1 11
+ 3.002 0 1 ping 50000 ------- 1 0.0 5.0 -1 28
- 3.002 0 1 ping 50000 ------- 1 0.0 5.0 -1 28
r 3.002 4 5 ping 50000 ------- 1 0.0 5.0 -1 10
+ 3.002 5 4 ping 50000 ------- 2 5.0 0.0 -1 29
- 3.002 5 4 ping 50000 ------- 2 5.0 0.0 -1 29
r 3.016 0 1 ping 50000 ------- 1 0.0 5.0 -1 28
+ 3.016 1 2 ping 50000 ------- 1 0.0 5.0 -1 28
- 3.016 1 2 ping 50000 ------- 1 0.0 5.0 -1 28
r 3.034 1 2 ping 50000 ------- 1 0.0 5.0 -1 28
+ 3.034 2 3 ping 50000 ------- 1 0.0 5.0 -1 28
r 3.052 5 4 ping 50000 ------- 2 5.0 0.0 -1 29
+ 3.052 4 3 ping 50000 ------- 2 5.0 0.0 -1 29
- 3.332 2 3 ping 50000 ------- 1 0.0 5.0 -1 22
r 3.342 2 3 ping 50000 ------- 1 0.0 5.0 -1 21
+ 3.342 3 4 ping 50000 ------- 1 0.0 5.0 -1 21
- 3.342 3 4 ping 50000 ------- 1 0.0 5.0 -1 21
- 3.35 4 3 ping 50000 ------- 2 5.0 0.0 -1 17
r 3.352 3 4 ping 50000 ------- 1 0.0 5.0 -1 14
+ 3.352 4 5 ping 50000 ------- 1 0.0 5.0 -1 14
- 3.352 4 5 ping 50000 ------- 1 0.0 5.0 -1 14
r 3.36 4 3 ping 50000 ------- 2 5.0 0.0 -1 15
+ 3.36 3 2 ping 50000 ------- 2 5.0 0.0 -1 15
- 3.36 3 2 ping 50000 ------- 2 5.0 0.0 -1 15
r 3.37 3 2 ping 50000 ------- 2 5.0 0.0 -1 13
+ 3.37 2 1 ping 50000 ------- 2 5.0 0.0 -1 13
- 3.37 2 1 ping 50000 ------- 2 5.0 0.0 -1 13
r 3.388 2 1 ping 50000 ------- 2 5.0 0.0 -1 13
+ 3.388 1 0 ping 50000 ------- 2 5.0 0.0 -1 13
- 3.388 1 0 ping 50000 ------- 2 5.0 0.0 -1 13
r 3.402 1 0 ping 50000 ------- 2 5.0 0.0 -1 13
+ 3.402 0 1 ping 50000 ------- 1 0.0 5.0 -1 30
- 3.402 0 1 ping 50000 ------- 1 0.0 5.0 -1 30
r 3.402 4 5 ping 50000 ------- 1 0.0 5.0 -1 14
+ 3.402 5 4 ping 50000 ------- 2 5.0 0.0 -1 31
- 3.402 5 4 ping 50000 ------- 2 5.0 0.0 -1 31
r 3.416 0 1 ping 50000 ------- 1 0.0 5.0 -1 30
+ 3.416 1 2 ping 50000 ------- 1 0.0 5.0 -1 30
- 3.416 1 2 ping 50000 ------- 1 0.0 5.0 -1 30
r 3.434 1 2 ping 50000 ------- 1 0.0 5.0 -1 30
+ 3.434 2 3 ping 50000 ------- 1 0.0 5.0 -1 30
r 3.452 5 4 ping 50000 ------- 2 5.0 0.0 -1 31
+ 3.452 4 3 ping 50000 ------- 2 5.0 0.0 -1 31
- 3.732 2 3 ping 50000 ------- 1 0.0 5.0 -1 25
r 3.742 2 3 ping 50000 ------- 1 0.0 5.0 -1 22
+ 3.742 3 4 ping 50000 ------- 1 0.0 5.0 -1 22
- 3.742 3 4 ping 50000 ------- 1 0.0 5.0 -1 22
- 3.75 4 3 ping 50000 ------- 2 5.0 0.0 -1 18
r 3.752 3 4 ping 50000 ------- 1 0.0 5.0 -1 21
+ 3.752 4 5 ping 50000 ------- 1 0.0 5.0 -1 21
- 3.752 4 5 ping 50000 ------- 1 0.0 5.0 -1 21
r 3.76 4 3 ping 50000 ------- 2 5.0 0.0 -1 17
+ 3.76 3 2 ping 50000 ------- 2 5.0 0.0 -1 17
- 3.76 3 2 ping 50000 ------- 2 5.0 0.0 -1 17
r 3.77 3 2 ping 50000 ------- 2 5.0 0.0 -1 15
+ 3.77 2 1 ping 50000 ------- 2 5.0 0.0 -1 15
- 3.77 2 1 ping 50000 ------- 2 5.0 0.0 -1 15
r 3.788 2 1 ping 50000 ------- 2 5.0 0.0 -1 15
+ 3.788 1 0 ping 50000 ------- 2 5.0 0.0 -1 15
- 3.788 1 0 ping 50000 ------- 2 5.0 0.0 -1 15
r 3.802 1 0 ping 50000 ------- 2 5.0 0.0 -1 15
+ 3.802 0 1 ping 50000 ------- 1 0.0 5.0 -1 32
- 3.802 0 1 ping 50000 ------- 1 0.0 5.0 -1 32
r 3.802 4 5 ping 50000 ------- 1 0.0 5.0 -1 21
r 3.816 0 1 ping 50000 ------- 1 0.0 5.0 -1 32
+ 3.816 1 2 ping 50000 ------- 1 0.0 5.0 -1 32
- 3.816 1 2 ping 50000 ------- 1 0.0 5.0 -1 32
r 3.834 1 2 ping 50000 ------- 1 0.0 5.0 -1 32
+ 3.834 2 3 ping 50000 ------- 1 0.0 5.0 -1 32
- 4.132 2 3 ping 50000 ------- 1 0.0 5.0 -1 26
r 4.142 2 3 ping 50000 ------- 1 0.0 5.0 -1 25
+ 4.142 3 4 ping 50000 ------- 1 0.0 5.0 -1 25
- 4.142 3 4 ping 50000 ------- 1 0.0 5.0 -1 25
- 4.15 4 3 ping 50000 ------- 2 5.0 0.0 -1 20
r 4.152 3 4 ping 50000 ------- 1 0.0 5.0 -1 22
+ 4.152 4 5 ping 50000 ------- 1 0.0 5.0 -1 22
- 4.152 4 5 ping 50000 ------- 1 0.0 5.0 -1 22
r 4.16 4 3 ping 50000 ------- 2 5.0 0.0 -1 18
+ 4.16 3 2 ping 50000 ------- 2 5.0 0.0 -1 18
- 4.16 3 2 ping 50000 ------- 2 5.0 0.0 -1 18
r 4.17 3 2 ping 50000 ------- 2 5.0 0.0 -1 17
+ 4.17 2 1 ping 50000 ------- 2 5.0 0.0 -1 17
- 4.17 2 1 ping 50000 ------- 2 5.0 0.0 -1 17
r 4.188 2 1 ping 50000 ------- 2 5.0 0.0 -1 17
+ 4.188 1 0 ping 50000 ------- 2 5.0 0.0 -1 17
- 4.188 1 0 ping 50000 ------- 2 5.0 0.0 -1 17
r 4.202 4 5 ping 50000 ------- 1 0.0 5.0 -1 22
r 4.202 1 0 ping 50000 ------- 2 5.0 0.0 -1 17
+ 4.202 0 1 ping 50000 ------- 1 0.0 5.0 -1 33
- 4.202 0 1 ping 50000 ------- 1 0.0 5.0 -1 33
r 4.216 0 1 ping 50000 ------- 1 0.0 5.0 -1 33
+ 4.216 1 2 ping 50000 ------- 1 0.0 5.0 -1 33
- 4.216 1 2 ping 50000 ------- 1 0.0 5.0 -1 33
r 4.234 1 2 ping 50000 ------- 1 0.0 5.0 -1 33
+ 4.234 2 3 ping 50000 ------- 1 0.0 5.0 -1 33
- 4.532 2 3 ping 50000 ------- 1 0.0 5.0 -1 28
r 4.542 2 3 ping 50000 ------- 1 0.0 5.0 -1 26
+ 4.542 3 4 ping 50000 ------- 1 0.0 5.0 -1 26
- 4.542 3 4 ping 50000 ------- 1 0.0 5.0 -1 26
- 4.55 4 3 ping 50000 ------- 2 5.0 0.0 -1 23
r 4.552 3 4 ping 50000 ------- 1 0.0 5.0 -1 25
+ 4.552 4 5 ping 50000 ------- 1 0.0 5.0 -1 25
- 4.552 4 5 ping 50000 ------- 1 0.0 5.0 -1 25
r 4.56 4 3 ping 50000 ------- 2 5.0 0.0 -1 20
+ 4.56 3 2 ping 50000 ------- 2 5.0 0.0 -1 20
- 4.56 3 2 ping 50000 ------- 2 5.0 0.0 -1 20
r 4.57 3 2 ping 50000 ------- 2 5.0 0.0 -1 18
+ 4.57 2 1 ping 50000 ------- 2 5.0 0.0 -1 18
- 4.57 2 1 ping 50000 ------- 2 5.0 0.0 -1 18
r 4.588 2 1 ping 50000 ------- 2 5.0 0.0 -1 18
+ 4.588 1 0 ping 50000 ------- 2 5.0 0.0 -1 18
- 4.588 1 0 ping 50000 ------- 2 5.0 0.0 -1 18
r 4.602 4 5 ping 50000 ------- 1 0.0 5.0 -1 25
r 4.602 1 0 ping 50000 ------- 2 5.0 0.0 -1 18
- 4.932 2 3 ping 50000 ------- 1 0.0 5.0 -1 30
r 4.942 2 3 ping 50000 ------- 1 0.0 5.0 -1 28
+ 4.942 3 4 ping 50000 ------- 1 0.0 5.0 -1 28
- 4.942 3 4 ping 50000 ------- 1 0.0 5.0 -1 28
- 4.95 4 3 ping 50000 ------- 2 5.0 0.0 -1 24
r 4.952 3 4 ping 50000 ------- 1 0.0 5.0 -1 26
+ 4.952 4 5 ping 50000 ------- 1 0.0 5.0 -1 26
- 4.952 4 5 ping 50000 ------- 1 0.0 5.0 -1 26
r 4.96 4 3 ping 50000 ------- 2 5.0 0.0 -1 23
+ 4.96 3 2 ping 50000 ------- 2 5.0 0.0 -1 23
- 4.96 3 2 ping 50000 ------- 2 5.0 0.0 -1 23
r 4.97 3 2 ping 50000 ------- 2 5.0 0.0 -1 20
+ 4.97 2 1 ping 50000 ------- 2 5.0 0.0 -1 20
- 4.97 2 1 ping 50000 ------- 2 5.0 0.0 -1 20
r 4.988 2 1 ping 50000 ------- 2 5.0 0.0 -1 20
+ 4.988 1 0 ping 50000 ------- 2 5.0 0.0 -1 20
- 4.988 1 0 ping 50000 ------- 2 5.0 0.0 -1 20
r 5.002 4 5 ping 50000 ------- 1 0.0 5.0 -1 26
r 5.002 1 0 ping 50000 ------- 2 5.0 0.0 -1 20
- 5.332 2 3 ping 50000 ------- 1 0.0 5.0 -1 32
r 5.342 2 3 ping 50000 ------- 1 0.0 5.0 -1 30
+ 5.342 3 4 ping 50000 ------- 1 0.0 5.0 -1 30
- 5.342 3 4 ping 50000 ------- 1 0.0 5.0 -1 30
- 5.35 4 3 ping 50000 ------- 2 5.0 0.0 -1 27
r 5.352 3 4 ping 50000 ------- 1 0.0 5.0 -1 28
+ 5.352 4 5 ping 50000 ------- 1 0.0 5.0 -1 28
- 5.352 4 5 ping 50000 ------- 1 0.0 5.0 -1 28
r 5.36 4 3 ping 50000 ------- 2 5.0 0.0 -1 24
+ 5.36 3 2 ping 50000 ------- 2 5.0 0.0 -1 24
- 5.36 3 2 ping 50000 ------- 2 5.0 0.0 -1 24
r 5.37 3 2 ping 50000 ------- 2 5.0 0.0 -1 23
+ 5.37 2 1 ping 50000 ------- 2 5.0 0.0 -1 23
- 5.37 2 1 ping 50000 ------- 2 5.0 0.0 -1 23
r 5.388 2 1 ping 50000 ------- 2 5.0 0.0 -1 23
+ 5.388 1 0 ping 50000 ------- 2 5.0 0.0 -1 23
- 5.388 1 0 ping 50000 ------- 2 5.0 0.0 -1 23
r 5.402 4 5 ping 50000 ------- 1 0.0 5.0 -1 28
r 5.402 1 0 ping 50000 ------- 2 5.0 0.0 -1 23
- 5.732 2 3 ping 50000 ------- 1 0.0 5.0 -1 33
r 5.742 2 3 ping 50000 ------- 1 0.0 5.0 -1 32
+ 5.742 3 4 ping 50000 ------- 1 0.0 5.0 -1 32
- 5.742 3 4 ping 50000 ------- 1 0.0 5.0 -1 32
- 5.75 4 3 ping 50000 ------- 2 5.0 0.0 -1 29
r 5.752 3 4 ping 50000 ------- 1 0.0 5.0 -1 30
+ 5.752 4 5 ping 50000 ------- 1 0.0 5.0 -1 30
- 5.752 4 5 ping 50000 ------- 1 0.0 5.0 -1 30
r 5.76 4 3 ping 50000 ------- 2 5.0 0.0 -1 27
+ 5.76 3 2 ping 50000 ------- 2 5.0 0.0 -1 27
- 5.76 3 2 ping 50000 ------- 2 5.0 0.0 -1 27
r 5.77 3 2 ping 50000 ------- 2 5.0 0.0 -1 24
+ 5.77 2 1 ping 50000 ------- 2 5.0 0.0 -1 24
- 5.77 2 1 ping 50000 ------- 2 5.0 0.0 -1 24
r 5.788 2 1 ping 50000 ------- 2 5.0 0.0 -1 24
+ 5.788 1 0 ping 50000 ------- 2 5.0 0.0 -1 24
- 5.788 1 0 ping 50000 ------- 2 5.0 0.0 -1 24
r 5.802 4 5 ping 50000 ------- 1 0.0 5.0 -1 30
r 5.802 1 0 ping 50000 ------- 2 5.0 0.0 -1 24
r 6.142 2 3 ping 50000 ------- 1 0.0 5.0 -1 33
+ 6.142 3 4 ping 50000 ------- 1 0.0 5.0 -1 33
- 6.142 3 4 ping 50000 ------- 1 0.0 5.0 -1 33
- 6.15 4 3 ping 50000 ------- 2 5.0 0.0 -1 31
r 6.152 3 4 ping 50000 ------- 1 0.0 5.0 -1 32
+ 6.152 4 5 ping 50000 ------- 1 0.0 5.0 -1 32
- 6.152 4 5 ping 50000 ------- 1 0.0 5.0 -1 32
r 6.16 4 3 ping 50000 ------- 2 5.0 0.0 -1 29
+ 6.16 3 2 ping 50000 ------- 2 5.0 0.0 -1 29
- 6.16 3 2 ping 50000 ------- 2 5.0 0.0 -1 29
r 6.17 3 2 ping 50000 ------- 2 5.0 0.0 -1 27
+ 6.17 2 1 ping 50000 ------- 2 5.0 0.0 -1 27
- 6.17 2 1 ping 50000 ------- 2 5.0 0.0 -1 27
r 6.188 2 1 ping 50000 ------- 2 5.0 0.0 -1 27
+ 6.188 1 0 ping 50000 ------- 2 5.0 0.0 -1 27
- 6.188 1 0 ping 50000 ------- 2 5.0 0.0 -1 27
r 6.202 4 5 ping 50000 ------- 1 0.0 5.0 -1 32
r 6.202 1 0 ping 50000 ------- 2 5.0 0.0 -1 27
r 6.552 3 4 ping 50000 ------- 1 0.0 5.0 -1 33
+ 6.552 4 5 ping 50000 ------- 1 0.0 5.0 -1 33
- 6.552 4 5 ping 50000 ------- 1 0.0 5.0 -1 33
r 6.56 4 3 ping 50000 ------- 2 5.0 0.0 -1 31
+ 6.56 3 2 ping 50000 ------- 2 5.0 0.0 -1 31
- 6.56 3 2 ping 50000 ------- 2 5.0 0.0 -1 31
r 6.57 3 2 ping 50000 ------- 2 5.0 0.0 -1 29
+ 6.57 2 1 ping 50000 ------- 2 5.0 0.0 -1 29
- 6.57 2 1 ping 50000 ------- 2 5.0 0.0 -1 29
r 6.588 2 1 ping 50000 ------- 2 5.0 0.0 -1 29
+ 6.588 1 0 ping 50000 ------- 2 5.0 0.0 -1 29
- 6.588 1 0 ping 50000 ------- 2 5.0 0.0 -1 29
r 6.602 4 5 ping 50000 ------- 1 0.0 5.0 -1 33
r 6.602 1 0 ping 50000 ------- 2 5.0 0.0 -1 29
r 6.97 3 2 ping 50000 ------- 2 5.0 0.0 -1 31
+ 6.97 2 1 ping 50000 ------- 2 5.0 0.0 -1 31
- 6.97 2 1 ping 50000 ------- 2 5.0 0.0 -1 31
r 6.988 2 1 ping 50000 ------- 2 5.0 0.0 -1 31
+ 6.988 1 0 ping 50000 ------- 2 5.0 0.0 -1 31
- 6.988 1 0 ping 50000 ------- 2 5.0 0.0 -1 31
r 7.002 1 0 ping 50000 ------- 2 5.0 0.0 -1 31
