+ 0.1 0 1 tcp 40 ------- 1 0.0 4.0 0 0
- 0.1 0 1 tcp 40 ------- 1 0.0 4.0 0 0
+ 0.1 2 1 tcp 40 ------- 2 2.0 5.0 0 1
- 0.1 2 1 tcp 40 ------- 2 2.0 5.0 0 1
r 0.110003 0 1 tcp 40 ------- 1 0.0 4.0 0 0
+ 0.110003 1 3 tcp 40 ------- 1 0.0 4.0 0 0
- 0.110003 1 3 tcp 40 ------- 1 0.0 4.0 0 0
r 0.110003 2 1 tcp 40 ------- 2 2.0 5.0 0 1
+ 0.110003 1 3 tcp 40 ------- 2 2.0 5.0 0 1
- 0.110006 1 3 tcp 40 ------- 2 2.0 5.0 0 1
r 0.120006 1 3 tcp 40 ------- 1 0.0 4.0 0 0
h 0.120006 3 6 tcp 40 ------- 1 0.0 4.0 0 0
r 0.12001 1 3 tcp 40 ------- 2 2.0 5.0 0 1
h 0.12001 3 6 tcp 40 ------- 2 2.0 5.0 0 1
+ 0.160006 3 6 tcp 40 ------- 1 0.0 4.0 0 0
- 0.160006 3 6 tcp 40 ------- 1 0.0 4.0 0 0
+ 0.16001 3 6 tcp 40 ------- 2 2.0 5.0 0 1
d 0.16001 5 6 tcp 40 ------- 1 0.0 4.0 0 0
- 0.160422 3 6 tcp 40 ------- 2 2.0 5.0 0 1
d 0.160426 4 6 tcp 40 ------- 2 2.0 5.0 0 1
r 0.20001 6 4 tcp 40 ------- 1 0.0 4.0 0 0
h 0.20001 4 6 ack 40 ------- 1 4.0 0.0 0 2
r 0.200426 6 5 tcp 40 ------- 2 2.0 5.0 0 1
h 0.200426 5 6 ack 40 ------- 2 5.0 2.0 0 3
+ 0.24001 4 6 ack 40 ------- 1 4.0 0.0 0 2
- 0.24001 4 6 ack 40 ------- 1 4.0 0.0 0 2
d 0.240014 5 6 ack 40 ------- 1 4.0 0.0 0 2
+ 0.240426 5 6 ack 40 ------- 2 5.0 2.0 0 3
- 0.240426 5 6 ack 40 ------- 2 5.0 2.0 0 3
d 0.24043 4 6 ack 40 ------- 2 5.0 2.0 0 3
r 0.280014 6 3 ack 40 ------- 1 4.0 0.0 0 2
+ 0.280014 3 1 ack 40 ------- 1 4.0 0.0 0 2
- 0.280014 3 1 ack 40 ------- 1 4.0 0.0 0 2
r 0.28043 6 3 ack 40 ------- 2 5.0 2.0 0 3
+ 0.28043 3 1 ack 40 ------- 2 5.0 2.0 0 3
- 0.28043 3 1 ack 40 ------- 2 5.0 2.0 0 3
r 0.290018 3 1 ack 40 ------- 1 4.0 0.0 0 2
+ 0.290018 1 0 ack 40 ------- 1 4.0 0.0 0 2
- 0.290018 1 0 ack 40 ------- 1 4.0 0.0 0 2
r 0.290434 3 1 ack 40 ------- 2 5.0 2.0 0 3
+ 0.290434 1 2 ack 40 ------- 2 5.0 2.0 0 3
- 0.290434 1 2 ack 40 ------- 2 5.0 2.0 0 3
r 0.300021 1 0 ack 40 ------- 1 4.0 0.0 0 2
+ 0.300021 0 1 tcp 1540 ------- 1 0.0 4.0 1 4
- 0.300021 0 1 tcp 1540 ------- 1 0.0 4.0 1 4
+ 0.300021 0 1 tcp 1540 ------- 1 0.0 4.0 2 5
- 0.300144 0 1 tcp 1540 ------- 1 0.0 4.0 2 5
r 0.300437 1 2 ack 40 ------- 2 5.0 2.0 0 3
+ 0.300437 2 1 tcp 1540 ------- 2 2.0 5.0 1 6
- 0.300437 2 1 tcp 1540 ------- 2 2.0 5.0 1 6
+ 0.300437 2 1 tcp 1540 ------- 2 2.0 5.0 2 7
- 0.30056 2 1 tcp 1540 ------- 2 2.0 5.0 2 7
r 0.310144 0 1 tcp 1540 ------- 1 0.0 4.0 1 4
+ 0.310144 1 3 tcp 1540 ------- 1 0.0 4.0 1 4
- 0.310144 1 3 tcp 1540 ------- 1 0.0 4.0 1 4
r 0.310267 0 1 tcp 1540 ------- 1 0.0 4.0 2 5
+ 0.310267 1 3 tcp 1540 ------- 1 0.0 4.0 2 5
- 0.310267 1 3 tcp 1540 ------- 1 0.0 4.0 2 5
r 0.31056 2 1 tcp 1540 ------- 2 2.0 5.0 1 6
+ 0.31056 1 3 tcp 1540 ------- 2 2.0 5.0 1 6
- 0.31056 1 3 tcp 1540 ------- 2 2.0 5.0 1 6
r 0.310683 2 1 tcp 1540 ------- 2 2.0 5.0 2 7
+ 0.310683 1 3 tcp 1540 ------- 2 2.0 5.0 2 7
- 0.310683 1 3 tcp 1540 ------- 2 2.0 5.0 2 7
r 0.320267 1 3 tcp 1540 ------- 1 0.0 4.0 1 4
h 0.320267 3 6 tcp 1540 ------- 1 0.0 4.0 1 4
r 0.32039 1 3 tcp 1540 ------- 1 0.0 4.0 2 5
h 0.32039 3 6 tcp 1540 ------- 1 0.0 4.0 2 5
r 0.320683 1 3 tcp 1540 ------- 2 2.0 5.0 1 6
h 0.320683 3 6 tcp 1540 ------- 2 2.0 5.0 1 6
r 0.320806 1 3 tcp 1540 ------- 2 2.0 5.0 2 7
h 0.320806 3 6 tcp 1540 ------- 2 2.0 5.0 2 7
+ 0.360267 3 6 tcp 1540 ------- 1 0.0 4.0 1 4
- 0.360267 3 6 tcp 1540 ------- 1 0.0 4.0 1 4
d 0.360271 5 6 tcp 1540 ------- 1 0.0 4.0 1 4
+ 0.36039 3 6 tcp 1540 ------- 1 0.0 4.0 2 5
+ 0.360683 3 6 tcp 1540 ------- 2 2.0 5.0 1 6
+ 0.360806 3 6 tcp 1540 ------- 2 2.0 5.0 2 7
- 0.366683 3 6 tcp 1540 ------- 1 0.0 4.0 2 5
d 0.366687 5 6 tcp 1540 ------- 1 0.0 4.0 2 5
- 0.373099 3 6 tcp 1540 ------- 2 2.0 5.0 1 6
d 0.373103 4 6 tcp 1540 ------- 2 2.0 5.0 1 6
- 0.379515 3 6 tcp 1540 ------- 2 2.0 5.0 2 7
d 0.379519 4 6 tcp 1540 ------- 2 2.0 5.0 2 7
r 0.400271 6 4 tcp 1540 ------- 1 0.0 4.0 1 4
h 0.400271 4 6 ack 40 ------- 1 4.0 0.0 1 8
r 0.406687 6 4 tcp 1540 ------- 1 0.0 4.0 2 5
h 0.406687 4 6 ack 40 ------- 1 4.0 0.0 2 9
r 0.413103 6 5 tcp 1540 ------- 2 2.0 5.0 1 6
h 0.413103 5 6 ack 40 ------- 2 5.0 2.0 1 10
r 0.419519 6 5 tcp 1540 ------- 2 2.0 5.0 2 7
h 0.419519 5 6 ack 40 ------- 2 5.0 2.0 2 11
+ 0.440271 4 6 ack 40 ------- 1 4.0 0.0 1 8
- 0.440271 4 6 ack 40 ------- 1 4.0 0.0 1 8
d 0.440275 5 6 ack 40 ------- 1 4.0 0.0 1 8
+ 0.446687 4 6 ack 40 ------- 1 4.0 0.0 2 9
- 0.446687 4 6 ack 40 ------- 1 4.0 0.0 2 9
d 0.446691 5 6 ack 40 ------- 1 4.0 0.0 2 9
+ 0.453103 5 6 ack 40 ------- 2 5.0 2.0 1 10
- 0.453103 5 6 ack 40 ------- 2 5.0 2.0 1 10
d 0.453107 4 6 ack 40 ------- 2 5.0 2.0 1 10
+ 0.459519 5 6 ack 40 ------- 2 5.0 2.0 2 11
- 0.459519 5 6 ack 40 ------- 2 5.0 2.0 2 11
d 0.459523 4 6 ack 40 ------- 2 5.0 2.0 2 11
r 0.480275 6 3 ack 40 ------- 1 4.0 0.0 1 8
+ 0.480275 3 1 ack 40 ------- 1 4.0 0.0 1 8
- 0.480275 3 1 ack 40 ------- 1 4.0 0.0 1 8
r 0.486691 6 3 ack 40 ------- 1 4.0 0.0 2 9
+ 0.486691 3 1 ack 40 ------- 1 4.0 0.0 2 9
- 0.486691 3 1 ack 40 ------- 1 4.0 0.0 2 9
r 0.490278 3 1 ack 40 ------- 1 4.0 0.0 1 8
+ 0.490278 1 0 ack 40 ------- 1 4.0 0.0 1 8
- 0.490278 1 0 ack 40 ------- 1 4.0 0.0 1 8
r 0.493107 6 3 ack 40 ------- 2 5.0 2.0 1 10
+ 0.493107 3 1 ack 40 ------- 2 5.0 2.0 1 10
- 0.493107 3 1 ack 40 ------- 2 5.0 2.0 1 10
r 0.496694 3 1 ack 40 ------- 1 4.0 0.0 2 9
+ 0.496694 1 0 ack 40 ------- 1 4.0 0.0 2 9
- 0.496694 1 0 ack 40 ------- 1 4.0 0.0 2 9
r 0.499523 6 3 ack 40 ------- 2 5.0 2.0 2 11
+ 0.499523 3 1 ack 40 ------- 2 5.0 2.0 2 11
- 0.499523 3 1 ack 40 ------- 2 5.0 2.0 2 11
r 0.500282 1 0 ack 40 ------- 1 4.0 0.0 1 8
+ 0.500282 0 1 tcp 1540 ------- 1 0.0 4.0 3 12
- 0.500282 0 1 tcp 1540 ------- 1 0.0 4.0 3 12
+ 0.500282 0 1 tcp 1540 ------- 1 0.0 4.0 4 13
- 0.500405 0 1 tcp 1540 ------- 1 0.0 4.0 4 13
r 0.50311 3 1 ack 40 ------- 2 5.0 2.0 1 10
+ 0.50311 1 2 ack 40 ------- 2 5.0 2.0 1 10
- 0.50311 1 2 ack 40 ------- 2 5.0 2.0 1 10
r 0.506698 1 0 ack 40 ------- 1 4.0 0.0 2 9
+ 0.506698 0 1 tcp 1540 ------- 1 0.0 4.0 5 14
- 0.506698 0 1 tcp 1540 ------- 1 0.0 4.0 5 14
+ 0.506698 0 1 tcp 1540 ------- 1 0.0 4.0 6 15
- 0.506821 0 1 tcp 1540 ------- 1 0.0 4.0 6 15
r 0.509526 3 1 ack 40 ------- 2 5.0 2.0 2 11
+ 0.509526 1 2 ack 40 ------- 2 5.0 2.0 2 11
- 0.509526 1 2 ack 40 ------- 2 5.0 2.0 2 11
r 0.510405 0 1 tcp 1540 ------- 1 0.0 4.0 3 12
+ 0.510405 1 3 tcp 1540 ------- 1 0.0 4.0 3 12
- 0.510405 1 3 tcp 1540 ------- 1 0.0 4.0 3 12
r 0.510528 0 1 tcp 1540 ------- 1 0.0 4.0 4 13
+ 0.510528 1 3 tcp 1540 ------- 1 0.0 4.0 4 13
- 0.510528 1 3 tcp 1540 ------- 1 0.0 4.0 4 13
r 0.513114 1 2 ack 40 ------- 2 5.0 2.0 1 10
+ 0.513114 2 1 tcp 1540 ------- 2 2.0 5.0 3 16
- 0.513114 2 1 tcp 1540 ------- 2 2.0 5.0 3 16
+ 0.513114 2 1 tcp 1540 ------- 2 2.0 5.0 4 17
- 0.513237 2 1 tcp 1540 ------- 2 2.0 5.0 4 17
r 0.516821 0 1 tcp 1540 ------- 1 0.0 4.0 5 14
+ 0.516821 1 3 tcp 1540 ------- 1 0.0 4.0 5 14
- 0.516821 1 3 tcp 1540 ------- 1 0.0 4.0 5 14
r 0.516944 0 1 tcp 1540 ------- 1 0.0 4.0 6 15
+ 0.516944 1 3 tcp 1540 ------- 1 0.0 4.0 6 15
- 0.516944 1 3 tcp 1540 ------- 1 0.0 4.0 6 15
r 0.51953 1 2 ack 40 ------- 2 5.0 2.0 2 11
+ 0.51953 2 1 tcp 1540 ------- 2 2.0 5.0 5 18
- 0.51953 2 1 tcp 1540 ------- 2 2.0 5.0 5 18
+ 0.51953 2 1 tcp 1540 ------- 2 2.0 5.0 6 19
- 0.519653 2 1 tcp 1540 ------- 2 2.0 5.0 6 19
r 0.520528 1 3 tcp 1540 ------- 1 0.0 4.0 3 12
h 0.520528 3 6 tcp 1540 ------- 1 0.0 4.0 3 12
r 0.520651 1 3 tcp 1540 ------- 1 0.0 4.0 4 13
h 0.520651 3 6 tcp 1540 ------- 1 0.0 4.0 4 13
r 0.523237 2 1 tcp 1540 ------- 2 2.0 5.0 3 16
+ 0.523237 1 3 tcp 1540 ------- 2 2.0 5.0 3 16
- 0.523237 1 3 tcp 1540 ------- 2 2.0 5.0 3 16
r 0.52336 2 1 tcp 1540 ------- 2 2.0 5.0 4 17
+ 0.52336 1 3 tcp 1540 ------- 2 2.0 5.0 4 17
- 0.52336 1 3 tcp 1540 ------- 2 2.0 5.0 4 17
r 0.526944 1 3 tcp 1540 ------- 1 0.0 4.0 5 14
h 0.526944 3 6 tcp 1540 ------- 1 0.0 4.0 5 14
r 0.527067 1 3 tcp 1540 ------- 1 0.0 4.0 6 15
h 0.527067 3 6 tcp 1540 ------- 1 0.0 4.0 6 15
r 0.529653 2 1 tcp 1540 ------- 2 2.0 5.0 5 18
+ 0.529653 1 3 tcp 1540 ------- 2 2.0 5.0 5 18
- 0.529653 1 3 tcp 1540 ------- 2 2.0 5.0 5 18
r 0.529776 2 1 tcp 1540 ------- 2 2.0 5.0 6 19
+ 0.529776 1 3 tcp 1540 ------- 2 2.0 5.0 6 19
- 0.529776 1 3 tcp 1540 ------- 2 2.0 5.0 6 19
r 0.53336 1 3 tcp 1540 ------- 2 2.0 5.0 3 16
h 0.53336 3 6 tcp 1540 ------- 2 2.0 5.0 3 16
r 0.533483 1 3 tcp 1540 ------- 2 2.0 5.0 4 17
h 0.533483 3 6 tcp 1540 ------- 2 2.0 5.0 4 17
r 0.539776 1 3 tcp 1540 ------- 2 2.0 5.0 5 18
h 0.539776 3 6 tcp 1540 ------- 2 2.0 5.0 5 18
r 0.539899 1 3 tcp 1540 ------- 2 2.0 5.0 6 19
h 0.539899 3 6 tcp 1540 ------- 2 2.0 5.0 6 19
+ 0.560528 3 6 tcp 1540 ------- 1 0.0 4.0 3 12
- 0.560528 3 6 tcp 1540 ------- 1 0.0 4.0 3 12
d 0.560532 5 6 tcp 1540 ------- 1 0.0 4.0 3 12
+ 0.560651 3 6 tcp 1540 ------- 1 0.0 4.0 4 13
+ 0.566944 3 6 tcp 1540 ------- 1 0.0 4.0 5 14
- 0.566944 3 6 tcp 1540 ------- 1 0.0 4.0 4 13
d 0.566948 5 6 tcp 1540 ------- 1 0.0 4.0 4 13
+ 0.567067 3 6 tcp 1540 ------- 1 0.0 4.0 6 15
+ 0.57336 3 6 tcp 1540 ------- 2 2.0 5.0 3 16
- 0.57336 3 6 tcp 1540 ------- 1 0.0 4.0 5 14
d 0.573364 5 6 tcp 1540 ------- 1 0.0 4.0 5 14
+ 0.573483 3 6 tcp 1540 ------- 2 2.0 5.0 4 17
+ 0.579776 3 6 tcp 1540 ------- 2 2.0 5.0 5 18
- 0.579776 3 6 tcp 1540 ------- 1 0.0 4.0 6 15
d 0.57978 5 6 tcp 1540 ------- 1 0.0 4.0 6 15
+ 0.579899 3 6 tcp 1540 ------- 2 2.0 5.0 6 19
- 0.586192 3 6 tcp 1540 ------- 2 2.0 5.0 3 16
d 0.586196 4 6 tcp 1540 ------- 2 2.0 5.0 3 16
- 0.592608 3 6 tcp 1540 ------- 2 2.0 5.0 4 17
d 0.592612 4 6 tcp 1540 ------- 2 2.0 5.0 4 17
- 0.599024 3 6 tcp 1540 ------- 2 2.0 5.0 5 18
d 0.599028 4 6 tcp 1540 ------- 2 2.0 5.0 5 18
r 0.600532 6 4 tcp 1540 ------- 1 0.0 4.0 3 12
h 0.600532 4 6 ack 40 ------- 1 4.0 0.0 3 20
- 0.60544 3 6 tcp 1540 ------- 2 2.0 5.0 6 19
d 0.605444 4 6 tcp 1540 ------- 2 2.0 5.0 6 19
r 0.606948 6 4 tcp 1540 ------- 1 0.0 4.0 4 13
h 0.606948 4 6 ack 40 ------- 1 4.0 0.0 4 21
r 0.613364 6 4 tcp 1540 ------- 1 0.0 4.0 5 14
h 0.613364 4 6 ack 40 ------- 1 4.0 0.0 5 22
r 0.61978 6 4 tcp 1540 ------- 1 0.0 4.0 6 15
h 0.61978 4 6 ack 40 ------- 1 4.0 0.0 6 23
r 0.626196 6 5 tcp 1540 ------- 2 2.0 5.0 3 16
h 0.626196 5 6 ack 40 ------- 2 5.0 2.0 3 24
r 0.632612 6 5 tcp 1540 ------- 2 2.0 5.0 4 17
h 0.632612 5 6 ack 40 ------- 2 5.0 2.0 4 25
r 0.639028 6 5 tcp 1540 ------- 2 2.0 5.0 5 18
h 0.639028 5 6 ack 40 ------- 2 5.0 2.0 5 26
+ 0.640532 4 6 ack 40 ------- 1 4.0 0.0 3 20
- 0.640532 4 6 ack 40 ------- 1 4.0 0.0 3 20
d 0.640536 5 6 ack 40 ------- 1 4.0 0.0 3 20
r 0.645444 6 5 tcp 1540 ------- 2 2.0 5.0 6 19
h 0.645444 5 6 ack 40 ------- 2 5.0 2.0 6 27
+ 0.646948 4 6 ack 40 ------- 1 4.0 0.0 4 21
- 0.646948 4 6 ack 40 ------- 1 4.0 0.0 4 21
d 0.646952 5 6 ack 40 ------- 1 4.0 0.0 4 21
+ 0.653364 4 6 ack 40 ------- 1 4.0 0.0 5 22
- 0.653364 4 6 ack 40 ------- 1 4.0 0.0 5 22
d 0.653368 5 6 ack 40 ------- 1 4.0 0.0 5 22
+ 0.65978 4 6 ack 40 ------- 1 4.0 0.0 6 23
- 0.65978 4 6 ack 40 ------- 1 4.0 0.0 6 23
d 0.659784 5 6 ack 40 ------- 1 4.0 0.0 6 23
+ 0.666196 5 6 ack 40 ------- 2 5.0 2.0 3 24
- 0.666196 5 6 ack 40 ------- 2 5.0 2.0 3 24
d 0.6662 4 6 ack 40 ------- 2 5.0 2.0 3 24
+ 0.672612 5 6 ack 40 ------- 2 5.0 2.0 4 25
- 0.672612 5 6 ack 40 ------- 2 5.0 2.0 4 25
d 0.672616 4 6 ack 40 ------- 2 5.0 2.0 4 25
+ 0.679028 5 6 ack 40 ------- 2 5.0 2.0 5 26
- 0.679028 5 6 ack 40 ------- 2 5.0 2.0 5 26
d 0.679032 4 6 ack 40 ------- 2 5.0 2.0 5 26
r 0.680536 6 3 ack 40 ------- 1 4.0 0.0 3 20
+ 0.680536 3 1 ack 40 ------- 1 4.0 0.0 3 20
- 0.680536 3 1 ack 40 ------- 1 4.0 0.0 3 20
+ 0.685444 5 6 ack 40 ------- 2 5.0 2.0 6 27
- 0.685444 5 6 ack 40 ------- 2 5.0 2.0 6 27
d 0.685448 4 6 ack 40 ------- 2 5.0 2.0 6 27
r 0.686952 6 3 ack 40 ------- 1 4.0 0.0 4 21
+ 0.686952 3 1 ack 40 ------- 1 4.0 0.0 4 21
- 0.686952 3 1 ack 40 ------- 1 4.0 0.0 4 21
r 0.690539 3 1 ack 40 ------- 1 4.0 0.0 3 20
+ 0.690539 1 0 ack 40 ------- 1 4.0 0.0 3 20
- 0.690539 1 0 ack 40 ------- 1 4.0 0.0 3 20
r 0.693368 6 3 ack 40 ------- 1 4.0 0.0 5 22
+ 0.693368 3 1 ack 40 ------- 1 4.0 0.0 5 22
- 0.693368 3 1 ack 40 ------- 1 4.0 0.0 5 22
r 0.696955 3 1 ack 40 ------- 1 4.0 0.0 4 21
+ 0.696955 1 0 ack 40 ------- 1 4.0 0.0 4 21
- 0.696955 1 0 ack 40 ------- 1 4.0 0.0 4 21
r 0.699784 6 3 ack 40 ------- 1 4.0 0.0 6 23
+ 0.699784 3 1 ack 40 ------- 1 4.0 0.0 6 23
- 0.699784 3 1 ack 40 ------- 1 4.0 0.0 6 23
r 0.700542 1 0 ack 40 ------- 1 4.0 0.0 3 20
+ 0.700542 0 1 tcp 1540 ------- 1 0.0 4.0 7 28
- 0.700542 0 1 tcp 1540 ------- 1 0.0 4.0 7 28
+ 0.700542 0 1 tcp 1540 ------- 1 0.0 4.0 8 29
- 0.700666 0 1 tcp 1540 ------- 1 0.0 4.0 8 29
r 0.703371 3 1 ack 40 ------- 1 4.0 0.0 5 22
+ 0.703371 1 0 ack 40 ------- 1 4.0 0.0 5 22
- 0.703371 1 0 ack 40 ------- 1 4.0 0.0 5 22
r 0.7062 6 3 ack 40 ------- 2 5.0 2.0 3 24
+ 0.7062 3 1 ack 40 ------- 2 5.0 2.0 3 24
- 0.7062 3 1 ack 40 ------- 2 5.0 2.0 3 24
r 0.706958 1 0 ack 40 ------- 1 4.0 0.0 4 21
+ 0.706958 0 1 tcp 1540 ------- 1 0.0 4.0 9 30
- 0.706958 0 1 tcp 1540 ------- 1 0.0 4.0 9 30
+ 0.706958 0 1 tcp 1540 ------- 1 0.0 4.0 10 31
- 0.707082 0 1 tcp 1540 ------- 1 0.0 4.0 10 31
r 0.709787 3 1 ack 40 ------- 1 4.0 0.0 6 23
+ 0.709787 1 0 ack 40 ------- 1 4.0 0.0 6 23
- 0.709787 1 0 ack 40 ------- 1 4.0 0.0 6 23
r 0.710666 0 1 tcp 1540 ------- 1 0.0 4.0 7 28
+ 0.710666 1 3 tcp 1540 ------- 1 0.0 4.0 7 28
- 0.710666 1 3 tcp 1540 ------- 1 0.0 4.0 7 28
r 0.710789 0 1 tcp 1540 ------- 1 0.0 4.0 8 29
+ 0.710789 1 3 tcp 1540 ------- 1 0.0 4.0 8 29
- 0.710789 1 3 tcp 1540 ------- 1 0.0 4.0 8 29
r 0.712616 6 3 ack 40 ------- 2 5.0 2.0 4 25
+ 0.712616 3 1 ack 40 ------- 2 5.0 2.0 4 25
- 0.712616 3 1 ack 40 ------- 2 5.0 2.0 4 25
r 0.713374 1 0 ack 40 ------- 1 4.0 0.0 5 22
+ 0.713374 0 1 tcp 1540 ------- 1 0.0 4.0 11 32
- 0.713374 0 1 tcp 1540 ------- 1 0.0 4.0 11 32
+ 0.713374 0 1 tcp 1540 ------- 1 0.0 4.0 12 33
- 0.713498 0 1 tcp 1540 ------- 1 0.0 4.0 12 33
r 0.716203 3 1 ack 40 ------- 2 5.0 2.0 3 24
+ 0.716203 1 2 ack 40 ------- 2 5.0 2.0 3 24
- 0.716203 1 2 ack 40 ------- 2 5.0 2.0 3 24
r 0.717082 0 1 tcp 1540 ------- 1 0.0 4.0 9 30
+ 0.717082 1 3 tcp 1540 ------- 1 0.0 4.0 9 30
- 0.717082 1 3 tcp 1540 ------- 1 0.0 4.0 9 30
r 0.717205 0 1 tcp 1540 ------- 1 0.0 4.0 10 31
+ 0.717205 1 3 tcp 1540 ------- 1 0.0 4.0 10 31
- 0.717205 1 3 tcp 1540 ------- 1 0.0 4.0 10 31
r 0.719032 6 3 ack 40 ------- 2 5.0 2.0 5 26
+ 0.719032 3 1 ack 40 ------- 2 5.0 2.0 5 26
- 0.719032 3 1 ack 40 ------- 2 5.0 2.0 5 26
r 0.71979 1 0 ack 40 ------- 1 4.0 0.0 6 23
+ 0.71979 0 1 tcp 1540 ------- 1 0.0 4.0 13 34
- 0.71979 0 1 tcp 1540 ------- 1 0.0 4.0 13 34
+ 0.71979 0 1 tcp 1540 ------- 1 0.0 4.0 14 35
- 0.719914 0 1 tcp 1540 ------- 1 0.0 4.0 14 35
r 0.720789 1 3 tcp 1540 ------- 1 0.0 4.0 7 28
h 0.720789 3 6 tcp 1540 ------- 1 0.0 4.0 7 28
r 0.720912 1 3 tcp 1540 ------- 1 0.0 4.0 8 29
h 0.720912 3 6 tcp 1540 ------- 1 0.0 4.0 8 29
r 0.722619 3 1 ack 40 ------- 2 5.0 2.0 4 25
+ 0.722619 1 2 ack 40 ------- 2 5.0 2.0 4 25
- 0.722619 1 2 ack 40 ------- 2 5.0 2.0 4 25
r 0.723498 0 1 tcp 1540 ------- 1 0.0 4.0 11 32
+ 0.723498 1 3 tcp 1540 ------- 1 0.0 4.0 11 32
- 0.723498 1 3 tcp 1540 ------- 1 0.0 4.0 11 32
r 0.723621 0 1 tcp 1540 ------- 1 0.0 4.0 12 33
+ 0.723621 1 3 tcp 1540 ------- 1 0.0 4.0 12 33
- 0.723621 1 3 tcp 1540 ------- 1 0.0 4.0 12 33
r 0.725448 6 3 ack 40 ------- 2 5.0 2.0 6 27
+ 0.725448 3 1 ack 40 ------- 2 5.0 2.0 6 27
- 0.725448 3 1 ack 40 ------- 2 5.0 2.0 6 27
r 0.726206 1 2 ack 40 ------- 2 5.0 2.0 3 24
+ 0.726206 2 1 tcp 1540 ------- 2 2.0 5.0 7 36
- 0.726206 2 1 tcp 1540 ------- 2 2.0 5.0 7 36
+ 0.726206 2 1 tcp 1540 ------- 2 2.0 5.0 8 37
- 0.72633 2 1 tcp 1540 ------- 2 2.0 5.0 8 37
r 0.727205 1 3 tcp 1540 ------- 1 0.0 4.0 9 30
h 0.727205 3 6 tcp 1540 ------- 1 0.0 4.0 9 30
r 0.727328 1 3 tcp 1540 ------- 1 0.0 4.0 10 31
h 0.727328 3 6 tcp 1540 ------- 1 0.0 4.0 10 31
r 0.729035 3 1 ack 40 ------- 2 5.0 2.0 5 26
+ 0.729035 1 2 ack 40 ------- 2 5.0 2.0 5 26
- 0.729035 1 2 ack 40 ------- 2 5.0 2.0 5 26
r 0.729914 0 1 tcp 1540 ------- 1 0.0 4.0 13 34
+ 0.729914 1 3 tcp 1540 ------- 1 0.0 4.0 13 34
- 0.729914 1 3 tcp 1540 ------- 1 0.0 4.0 13 34
r 0.730037 0 1 tcp 1540 ------- 1 0.0 4.0 14 35
+ 0.730037 1 3 tcp 1540 ------- 1 0.0 4.0 14 35
- 0.730037 1 3 tcp 1540 ------- 1 0.0 4.0 14 35
r 0.732622 1 2 ack 40 ------- 2 5.0 2.0 4 25
+ 0.732622 2 1 tcp 1540 ------- 2 2.0 5.0 9 38
- 0.732622 2 1 tcp 1540 ------- 2 2.0 5.0 9 38
+ 0.732622 2 1 tcp 1540 ------- 2 2.0 5.0 10 39
- 0.732746 2 1 tcp 1540 ------- 2 2.0 5.0 10 39
r 0.733621 1 3 tcp 1540 ------- 1 0.0 4.0 11 32
h 0.733621 3 6 tcp 1540 ------- 1 0.0 4.0 11 32
r 0.733744 1 3 tcp 1540 ------- 1 0.0 4.0 12 33
h 0.733744 3 6 tcp 1540 ------- 1 0.0 4.0 12 33
r 0.735451 3 1 ack 40 ------- 2 5.0 2.0 6 27
+ 0.735451 1 2 ack 40 ------- 2 5.0 2.0 6 27
- 0.735451 1 2 ack 40 ------- 2 5.0 2.0 6 27
r 0.73633 2 1 tcp 1540 ------- 2 2.0 5.0 7 36
+ 0.73633 1 3 tcp 1540 ------- 2 2.0 5.0 7 36
- 0.73633 1 3 tcp 1540 ------- 2 2.0 5.0 7 36
r 0.736453 2 1 tcp 1540 ------- 2 2.0 5.0 8 37
+ 0.736453 1 3 tcp 1540 ------- 2 2.0 5.0 8 37
- 0.736453 1 3 tcp 1540 ------- 2 2.0 5.0 8 37
r 0.739038 1 2 ack 40 ------- 2 5.0 2.0 5 26
+ 0.739038 2 1 tcp 1540 ------- 2 2.0 5.0 11 40
- 0.739038 2 1 tcp 1540 ------- 2 2.0 5.0 11 40
+ 0.739038 2 1 tcp 1540 ------- 2 2.0 5.0 12 41
- 0.739162 2 1 tcp 1540 ------- 2 2.0 5.0 12 41
r 0.740037 1 3 tcp 1540 ------- 1 0.0 4.0 13 34
h 0.740037 3 6 tcp 1540 ------- 1 0.0 4.0 13 34
r 0.74016 1 3 tcp 1540 ------- 1 0.0 4.0 14 35
h 0.74016 3 6 tcp 1540 ------- 1 0.0 4.0 14 35
r 0.742746 2 1 tcp 1540 ------- 2 2.0 5.0 9 38
+ 0.742746 1 3 tcp 1540 ------- 2 2.0 5.0 9 38
- 0.742746 1 3 tcp 1540 ------- 2 2.0 5.0 9 38
r 0.742869 2 1 tcp 1540 ------- 2 2.0 5.0 10 39
+ 0.742869 1 3 tcp 1540 ------- 2 2.0 5.0 10 39
- 0.742869 1 3 tcp 1540 ------- 2 2.0 5.0 10 39
r 0.745454 1 2 ack 40 ------- 2 5.0 2.0 6 27
+ 0.745454 2 1 tcp 1540 ------- 2 2.0 5.0 13 42
- 0.745454 2 1 tcp 1540 ------- 2 2.0 5.0 13 42
+ 0.745454 2 1 tcp 1540 ------- 2 2.0 5.0 14 43
- 0.745578 2 1 tcp 1540 ------- 2 2.0 5.0 14 43
r 0.746453 1 3 tcp 1540 ------- 2 2.0 5.0 7 36
h 0.746453 3 6 tcp 1540 ------- 2 2.0 5.0 7 36
r 0.746576 1 3 tcp 1540 ------- 2 2.0 5.0 8 37
h 0.746576 3 6 tcp 1540 ------- 2 2.0 5.0 8 37
r 0.749162 2 1 tcp 1540 ------- 2 2.0 5.0 11 40
+ 0.749162 1 3 tcp 1540 ------- 2 2.0 5.0 11 40
- 0.749162 1 3 tcp 1540 ------- 2 2.0 5.0 11 40
r 0.749285 2 1 tcp 1540 ------- 2 2.0 5.0 12 41
+ 0.749285 1 3 tcp 1540 ------- 2 2.0 5.0 12 41
- 0.749285 1 3 tcp 1540 ------- 2 2.0 5.0 12 41
r 0.752869 1 3 tcp 1540 ------- 2 2.0 5.0 9 38
h 0.752869 3 6 tcp 1540 ------- 2 2.0 5.0 9 38
r 0.752992 1 3 tcp 1540 ------- 2 2.0 5.0 10 39
h 0.752992 3 6 tcp 1540 ------- 2 2.0 5.0 10 39
r 0.755578 2 1 tcp 1540 ------- 2 2.0 5.0 13 42
+ 0.755578 1 3 tcp 1540 ------- 2 2.0 5.0 13 42
- 0.755578 1 3 tcp 1540 ------- 2 2.0 5.0 13 42
r 0.755701 2 1 tcp 1540 ------- 2 2.0 5.0 14 43
+ 0.755701 1 3 tcp 1540 ------- 2 2.0 5.0 14 43
- 0.755701 1 3 tcp 1540 ------- 2 2.0 5.0 14 43
r 0.759285 1 3 tcp 1540 ------- 2 2.0 5.0 11 40
h 0.759285 3 6 tcp 1540 ------- 2 2.0 5.0 11 40
r 0.759408 1 3 tcp 1540 ------- 2 2.0 5.0 12 41
h 0.759408 3 6 tcp 1540 ------- 2 2.0 5.0 12 41
+ 0.760789 3 6 tcp 1540 ------- 1 0.0 4.0 7 28
- 0.760789 3 6 tcp 1540 ------- 1 0.0 4.0 7 28
d 0.760793 5 6 tcp 1540 ------- 1 0.0 4.0 7 28
+ 0.760912 3 6 tcp 1540 ------- 1 0.0 4.0 8 29
r 0.765701 1 3 tcp 1540 ------- 2 2.0 5.0 13 42
h 0.765701 3 6 tcp 1540 ------- 2 2.0 5.0 13 42
r 0.765824 1 3 tcp 1540 ------- 2 2.0 5.0 14 43
h 0.765824 3 6 tcp 1540 ------- 2 2.0 5.0 14 43
+ 0.767205 3 6 tcp 1540 ------- 1 0.0 4.0 9 30
- 0.767205 3 6 tcp 1540 ------- 1 0.0 4.0 8 29
d 0.767209 5 6 tcp 1540 ------- 1 0.0 4.0 8 29
+ 0.767328 3 6 tcp 1540 ------- 1 0.0 4.0 10 31
+ 0.773621 3 6 tcp 1540 ------- 1 0.0 4.0 11 32
- 0.773621 3 6 tcp 1540 ------- 1 0.0 4.0 9 30
d 0.773625 5 6 tcp 1540 ------- 1 0.0 4.0 9 30
+ 0.773744 3 6 tcp 1540 ------- 1 0.0 4.0 12 33
+ 0.780037 3 6 tcp 1540 ------- 1 0.0 4.0 13 34
- 0.780037 3 6 tcp 1540 ------- 1 0.0 4.0 10 31
d 0.780041 5 6 tcp 1540 ------- 1 0.0 4.0 10 31
+ 0.78016 3 6 tcp 1540 ------- 1 0.0 4.0 14 35
+ 0.786453 3 6 tcp 1540 ------- 2 2.0 5.0 7 36
- 0.786453 3 6 tcp 1540 ------- 1 0.0 4.0 11 32
d 0.786457 5 6 tcp 1540 ------- 1 0.0 4.0 11 32
+ 0.786576 3 6 tcp 1540 ------- 2 2.0 5.0 8 37
+ 0.792869 3 6 tcp 1540 ------- 2 2.0 5.0 9 38
- 0.792869 3 6 tcp 1540 ------- 1 0.0 4.0 12 33
d 0.792873 5 6 tcp 1540 ------- 1 0.0 4.0 12 33
+ 0.792992 3 6 tcp 1540 ------- 2 2.0 5.0 10 39
+ 0.799285 3 6 tcp 1540 ------- 2 2.0 5.0 11 40
- 0.799285 3 6 tcp 1540 ------- 1 0.0 4.0 13 34
d 0.799289 5 6 tcp 1540 ------- 1 0.0 4.0 13 34
+ 0.799408 3 6 tcp 1540 ------- 2 2.0 5.0 12 41
r 0.800793 6 4 tcp 1540 ------- 1 0.0 4.0 7 28
h 0.800793 4 6 ack 40 ------- 1 4.0 0.0 7 44
+ 0.805701 3 6 tcp 1540 ------- 2 2.0 5.0 13 42
- 0.805701 3 6 tcp 1540 ------- 1 0.0 4.0 14 35
d 0.805705 5 6 tcp 1540 ------- 1 0.0 4.0 14 35
+ 0.805824 3 6 tcp 1540 ------- 2 2.0 5.0 14 43
r 0.807209 6 4 tcp 1540 ------- 1 0.0 4.0 8 29
h 0.807209 4 6 ack 40 ------- 1 4.0 0.0 8 45
- 0.812117 3 6 tcp 1540 ------- 2 2.0 5.0 7 36
d 0.812121 4 6 tcp 1540 ------- 2 2.0 5.0 7 36
r 0.813625 6 4 tcp 1540 ------- 1 0.0 4.0 9 30
h 0.813625 4 6 ack 40 ------- 1 4.0 0.0 9 46
- 0.818533 3 6 tcp 1540 ------- 2 2.0 5.0 8 37
d 0.818537 4 6 tcp 1540 ------- 2 2.0 5.0 8 37
r 0.820041 6 4 tcp 1540 ------- 1 0.0 4.0 10 31
h 0.820041 4 6 ack 40 ------- 1 4.0 0.0 10 47
- 0.824949 3 6 tcp 1540 ------- 2 2.0 5.0 9 38
d 0.824953 4 6 tcp 1540 ------- 2 2.0 5.0 9 38
r 0.826457 6 4 tcp 1540 ------- 1 0.0 4.0 11 32
h 0.826457 4 6 ack 40 ------- 1 4.0 0.0 11 48
- 0.831365 3 6 tcp 1540 ------- 2 2.0 5.0 10 39
d 0.831369 4 6 tcp 1540 ------- 2 2.0 5.0 10 39
r 0.832873 6 4 tcp 1540 ------- 1 0.0 4.0 12 33
h 0.832873 4 6 ack 40 ------- 1 4.0 0.0 12 49
- 0.837781 3 6 tcp 1540 ------- 2 2.0 5.0 11 40
d 0.837785 4 6 tcp 1540 ------- 2 2.0 5.0 11 40
r 0.839289 6 4 tcp 1540 ------- 1 0.0 4.0 13 34
h 0.839289 4 6 ack 40 ------- 1 4.0 0.0 13 50
+ 0.840793 4 6 ack 40 ------- 1 4.0 0.0 7 44
- 0.840793 4 6 ack 40 ------- 1 4.0 0.0 7 44
d 0.840797 5 6 ack 40 ------- 1 4.0 0.0 7 44
- 0.844197 3 6 tcp 1540 ------- 2 2.0 5.0 12 41
d 0.844201 4 6 tcp 1540 ------- 2 2.0 5.0 12 41
r 0.845705 6 4 tcp 1540 ------- 1 0.0 4.0 14 35
h 0.845705 4 6 ack 40 ------- 1 4.0 0.0 14 51
+ 0.847209 4 6 ack 40 ------- 1 4.0 0.0 8 45
- 0.847209 4 6 ack 40 ------- 1 4.0 0.0 8 45
d 0.847213 5 6 ack 40 ------- 1 4.0 0.0 8 45
- 0.850613 3 6 tcp 1540 ------- 2 2.0 5.0 13 42
d 0.850617 4 6 tcp 1540 ------- 2 2.0 5.0 13 42
r 0.852121 6 5 tcp 1540 ------- 2 2.0 5.0 7 36
h 0.852121 5 6 ack 40 ------- 2 5.0 2.0 7 52
+ 0.853625 4 6 ack 40 ------- 1 4.0 0.0 9 46
- 0.853625 4 6 ack 40 ------- 1 4.0 0.0 9 46
d 0.853629 5 6 ack 40 ------- 1 4.0 0.0 9 46
- 0.857029 3 6 tcp 1540 ------- 2 2.0 5.0 14 43
d 0.857033 4 6 tcp 1540 ------- 2 2.0 5.0 14 43
r 0.858537 6 5 tcp 1540 ------- 2 2.0 5.0 8 37
h 0.858537 5 6 ack 40 ------- 2 5.0 2.0 8 53
+ 0.860041 4 6 ack 40 ------- 1 4.0 0.0 10 47
- 0.860041 4 6 ack 40 ------- 1 4.0 0.0 10 47
d 0.860045 5 6 ack 40 ------- 1 4.0 0.0 10 47
r 0.864953 6 5 tcp 1540 ------- 2 2.0 5.0 9 38
h 0.864953 5 6 ack 40 ------- 2 5.0 2.0 9 54
+ 0.866457 4 6 ack 40 ------- 1 4.0 0.0 11 48
- 0.866457 4 6 ack 40 ------- 1 4.0 0.0 11 48
d 0.866461 5 6 ack 40 ------- 1 4.0 0.0 11 48
r 0.871369 6 5 tcp 1540 ------- 2 2.0 5.0 10 39
h 0.871369 5 6 ack 40 ------- 2 5.0 2.0 10 55
+ 0.872873 4 6 ack 40 ------- 1 4.0 0.0 12 49
- 0.872873 4 6 ack 40 ------- 1 4.0 0.0 12 49
d 0.872877 5 6 ack 40 ------- 1 4.0 0.0 12 49
r 0.877785 6 5 tcp 1540 ------- 2 2.0 5.0 11 40
h 0.877785 5 6 ack 40 ------- 2 5.0 2.0 11 56
+ 0.879289 4 6 ack 40 ------- 1 4.0 0.0 13 50
- 0.879289 4 6 ack 40 ------- 1 4.0 0.0 13 50
d 0.879293 5 6 ack 40 ------- 1 4.0 0.0 13 50
r 0.880797 6 3 ack 40 ------- 1 4.0 0.0 7 44
+ 0.880797 3 1 ack 40 ------- 1 4.0 0.0 7 44
- 0.880797 3 1 ack 40 ------- 1 4.0 0.0 7 44
r 0.884201 6 5 tcp 1540 ------- 2 2.0 5.0 12 41
h 0.884201 5 6 ack 40 ------- 2 5.0 2.0 12 57
+ 0.885705 4 6 ack 40 ------- 1 4.0 0.0 14 51
- 0.885705 4 6 ack 40 ------- 1 4.0 0.0 14 51
d 0.885709 5 6 ack 40 ------- 1 4.0 0.0 14 51
r 0.887213 6 3 ack 40 ------- 1 4.0 0.0 8 45
+ 0.887213 3 1 ack 40 ------- 1 4.0 0.0 8 45
- 0.887213 3 1 ack 40 ------- 1 4.0 0.0 8 45
r 0.890617 6 5 tcp 1540 ------- 2 2.0 5.0 13 42
h 0.890617 5 6 ack 40 ------- 2 5.0 2.0 13 58
r 0.8908 3 1 ack 40 ------- 1 4.0 0.0 7 44
+ 0.8908 1 0 ack 40 ------- 1 4.0 0.0 7 44
- 0.8908 1 0 ack 40 ------- 1 4.0 0.0 7 44
+ 0.892121 5 6 ack 40 ------- 2 5.0 2.0 7 52
- 0.892121 5 6 ack 40 ------- 2 5.0 2.0 7 52
d 0.892125 4 6 ack 40 ------- 2 5.0 2.0 7 52
r 0.893629 6 3 ack 40 ------- 1 4.0 0.0 9 46
+ 0.893629 3 1 ack 40 ------- 1 4.0 0.0 9 46
- 0.893629 3 1 ack 40 ------- 1 4.0 0.0 9 46
r 0.897033 6 5 tcp 1540 ------- 2 2.0 5.0 14 43
h 0.897033 5 6 ack 40 ------- 2 5.0 2.0 14 59
r 0.897216 3 1 ack 40 ------- 1 4.0 0.0 8 45
+ 0.897216 1 0 ack 40 ------- 1 4.0 0.0 8 45
- 0.897216 1 0 ack 40 ------- 1 4.0 0.0 8 45
+ 0.898537 5 6 ack 40 ------- 2 5.0 2.0 8 53
- 0.898537 5 6 ack 40 ------- 2 5.0 2.0 8 53
d 0.898541 4 6 ack 40 ------- 2 5.0 2.0 8 53
r 0.900045 6 3 ack 40 ------- 1 4.0 0.0 10 47
+ 0.900045 3 1 ack 40 ------- 1 4.0 0.0 10 47
- 0.900045 3 1 ack 40 ------- 1 4.0 0.0 10 47
r 0.900803 1 0 ack 40 ------- 1 4.0 0.0 7 44
+ 0.900803 0 1 tcp 1540 ------- 1 0.0 4.0 15 60
- 0.900803 0 1 tcp 1540 ------- 1 0.0 4.0 15 60
+ 0.900803 0 1 tcp 1540 ------- 1 0.0 4.0 16 61
- 0.900926 0 1 tcp 1540 ------- 1 0.0 4.0 16 61
r 0.903632 3 1 ack 40 ------- 1 4.0 0.0 9 46
+ 0.903632 1 0 ack 40 ------- 1 4.0 0.0 9 46
- 0.903632 1 0 ack 40 ------- 1 4.0 0.0 9 46
+ 0.904953 5 6 ack 40 ------- 2 5.0 2.0 9 54
- 0.904953 5 6 ack 40 ------- 2 5.0 2.0 9 54
d 0.904957 4 6 ack 40 ------- 2 5.0 2.0 9 54
r 0.906461 6 3 ack 40 ------- 1 4.0 0.0 11 48
+ 0.906461 3 1 ack 40 ------- 1 4.0 0.0 11 48
- 0.906461 3 1 ack 40 ------- 1 4.0 0.0 11 48
r 0.907219 1 0 ack 40 ------- 1 4.0 0.0 8 45
+ 0.907219 0 1 tcp 1540 ------- 1 0.0 4.0 17 62
- 0.907219 0 1 tcp 1540 ------- 1 0.0 4.0 17 62
+ 0.907219 0 1 tcp 1540 ------- 1 0.0 4.0 18 63
- 0.907342 0 1 tcp 1540 ------- 1 0.0 4.0 18 63
r 0.910048 3 1 ack 40 ------- 1 4.0 0.0 10 47
+ 0.910048 1 0 ack 40 ------- 1 4.0 0.0 10 47
- 0.910048 1 0 ack 40 ------- 1 4.0 0.0 10 47
r 0.910926 0 1 tcp 1540 ------- 1 0.0 4.0 15 60
+ 0.910926 1 3 tcp 1540 ------- 1 0.0 4.0 15 60
- 0.910926 1 3 tcp 1540 ------- 1 0.0 4.0 15 60
r 0.91105 0 1 tcp 1540 ------- 1 0.0 4.0 16 61
+ 0.91105 1 3 tcp 1540 ------- 1 0.0 4.0 16 61
- 0.91105 1 3 tcp 1540 ------- 1 0.0 4.0 16 61
+ 0.911369 5 6 ack 40 ------- 2 5.0 2.0 10 55
- 0.911369 5 6 ack 40 ------- 2 5.0 2.0 10 55
d 0.911373 4 6 ack 40 ------- 2 5.0 2.0 10 55
r 0.912877 6 3 ack 40 ------- 1 4.0 0.0 12 49
+ 0.912877 3 1 ack 40 ------- 1 4.0 0.0 12 49
- 0.912877 3 1 ack 40 ------- 1 4.0 0.0 12 49
r 0.913635 1 0 ack 40 ------- 1 4.0 0.0 9 46
+ 0.913635 0 1 tcp 1540 ------- 1 0.0 4.0 19 64
- 0.913635 0 1 tcp 1540 ------- 1 0.0 4.0 19 64
+ 0.913635 0 1 tcp 1540 ------- 1 0.0 4.0 20 65
- 0.913758 0 1 tcp 1540 ------- 1 0.0 4.0 20 65
r 0.916464 3 1 ack 40 ------- 1 4.0 0.0 11 48
+ 0.916464 1 0 ack 40 ------- 1 4.0 0.0 11 48
- 0.916464 1 0 ack 40 ------- 1 4.0 0.0 11 48
r 0.917342 0 1 tcp 1540 ------- 1 0.0 4.0 17 62
+ 0.917342 1 3 tcp 1540 ------- 1 0.0 4.0 17 62
- 0.917342 1 3 tcp 1540 ------- 1 0.0 4.0 17 62
r 0.917466 0 1 tcp 1540 ------- 1 0.0 4.0 18 63
+ 0.917466 1 3 tcp 1540 ------- 1 0.0 4.0 18 63
- 0.917466 1 3 tcp 1540 ------- 1 0.0 4.0 18 63
+ 0.917785 5 6 ack 40 ------- 2 5.0 2.0 11 56
- 0.917785 5 6 ack 40 ------- 2 5.0 2.0 11 56
d 0.917789 4 6 ack 40 ------- 2 5.0 2.0 11 56
r 0.919293 6 3 ack 40 ------- 1 4.0 0.0 13 50
+ 0.919293 3 1 ack 40 ------- 1 4.0 0.0 13 50
- 0.919293 3 1 ack 40 ------- 1 4.0 0.0 13 50
r 0.920051 1 0 ack 40 ------- 1 4.0 0.0 10 47
+ 0.920051 0 1 tcp 1540 ------- 1 0.0 4.0 21 66
- 0.920051 0 1 tcp 1540 ------- 1 0.0 4.0 21 66
+ 0.920051 0 1 tcp 1540 ------- 1 0.0 4.0 22 67
- 0.920174 0 1 tcp 1540 ------- 1 0.0 4.0 22 67
r 0.92105 1 3 tcp 1540 ------- 1 0.0 4.0 15 60
h 0.92105 3 6 tcp 1540 ------- 1 0.0 4.0 15 60
r 0.921173 1 3 tcp 1540 ------- 1 0.0 4.0 16 61
h 0.921173 3 6 tcp 1540 ------- 1 0.0 4.0 16 61
r 0.92288 3 1 ack 40 ------- 1 4.0 0.0 12 49
+ 0.92288 1 0 ack 40 ------- 1 4.0 0.0 12 49
- 0.92288 1 0 ack 40 ------- 1 4.0 0.0 12 49
r 0.923758 0 1 tcp 1540 ------- 1 0.0 4.0 19 64
+ 0.923758 1 3 tcp 1540 ------- 1 0.0 4.0 19 64
- 0.923758 1 3 tcp 1540 ------- 1 0.0 4.0 19 64
r 0.923882 0 1 tcp 1540 ------- 1 0.0 4.0 20 65
+ 0.923882 1 3 tcp 1540 ------- 1 0.0 4.0 20 65
- 0.923882 1 3 tcp 1540 ------- 1 0.0 4.0 20 65
+ 0.924201 5 6 ack 40 ------- 2 5.0 2.0 12 57
- 0.924201 5 6 ack 40 ------- 2 5.0 2.0 12 57
d 0.924205 4 6 ack 40 ------- 2 5.0 2.0 12 57
r 0.925709 6 3 ack 40 ------- 1 4.0 0.0 14 51
+ 0.925709 3 1 ack 40 ------- 1 4.0 0.0 14 51
- 0.925709 3 1 ack 40 ------- 1 4.0 0.0 14 51
r 0.926467 1 0 ack 40 ------- 1 4.0 0.0 11 48
+ 0.926467 0 1 tcp 1540 ------- 1 0.0 4.0 23 68
- 0.926467 0 1 tcp 1540 ------- 1 0.0 4.0 23 68
+ 0.926467 0 1 tcp 1540 ------- 1 0.0 4.0 24 69
- 0.92659 0 1 tcp 1540 ------- 1 0.0 4.0 24 69
r 0.927466 1 3 tcp 1540 ------- 1 0.0 4.0 17 62
h 0.927466 3 6 tcp 1540 ------- 1 0.0 4.0 17 62
r 0.927589 1 3 tcp 1540 ------- 1 0.0 4.0 18 63
h 0.927589 3 6 tcp 1540 ------- 1 0.0 4.0 18 63
r 0.929296 3 1 ack 40 ------- 1 4.0 0.0 13 50
+ 0.929296 1 0 ack 40 ------- 1 4.0 0.0 13 50
- 0.929296 1 0 ack 40 ------- 1 4.0 0.0 13 50
r 0.930174 0 1 tcp 1540 ------- 1 0.0 4.0 21 66
+ 0.930174 1 3 tcp 1540 ------- 1 0.0 4.0 21 66
- 0.930174 1 3 tcp 1540 ------- 1 0.0 4.0 21 66
r 0.930298 0 1 tcp 1540 ------- 1 0.0 4.0 22 67
+ 0.930298 1 3 tcp 1540 ------- 1 0.0 4.0 22 67
- 0.930298 1 3 tcp 1540 ------- 1 0.0 4.0 22 67
+ 0.930617 5 6 ack 40 ------- 2 5.0 2.0 13 58
- 0.930617 5 6 ack 40 ------- 2 5.0 2.0 13 58
d 0.930621 4 6 ack 40 ------- 2 5.0 2.0 13 58
r 0.932125 6 3 ack 40 ------- 2 5.0 2.0 7 52
+ 0.932125 3 1 ack 40 ------- 2 5.0 2.0 7 52
- 0.932125 3 1 ack 40 ------- 2 5.0 2.0 7 52