V -t * -v 1.0a5 -a 0
A -t * -n 1 -p 0 -o 0x7fffffff -c 30 -a 1
A -t * -h 1 -m 1073741823 -s 0
c -t * -i 1 -n Red
c -t * -i 2 -n Blue
n -t * -a 4 -s 4 -S UP -v circle -c black -i black
n -t * -a 0 -s 0 -S UP -v circle -c black -i black
n -t * -a 5 -s 5 -S UP -v circle -c black -i black
n -t * -a 1 -s 1 -S UP -v circle -c black -i black
n -t * -a 2 -s 2 -S UP -v circle -c black -i black
n -t * -a 3 -s 3 -S UP -v circle -c black -i black
l -t * -s 0 -d 1 -S UP -r 100000000 -D 0.01 -c blue -o right-down
l -t * -s 2 -d 1 -S UP -r 100000000 -D 0.01 -c green -o right-up
l -t * -s 1 -d 3 -S UP -r 100000000 -D 0.01 -c black -o right
X -t * -n 6 -r 1Mb -D 40ms -o left
L -t * -s 6 -d 3 -o up
L -t * -s 6 -d 4 -o down
L -t * -s 6 -d 5 -o up
+ -t 0.1 -s 0 -d 1 -p tcp -e 40 -c 1 -i 0 -a 1 -x {0.0 4.0 0 ------- null}
- -t 0.1 -s 0 -d 1 -p tcp -e 40 -c 1 -i 0 -a 1 -x {0.0 4.0 0 ------- null}
h -t 0.1 -s 0 -d 1 -p tcp -e 40 -c 1 -i 0 -a 1 -x {0.0 4.0 -1 ------- null}
+ -t 0.1 -s 2 -d 1 -p tcp -e 40 -c 2 -i 1 -a 2 -x {2.0 5.0 0 ------- null}
- -t 0.1 -s 2 -d 1 -p tcp -e 40 -c 2 -i 1 -a 2 -x {2.0 5.0 0 ------- null}
h -t 0.1 -s 2 -d 1 -p tcp -e 40 -c 2 -i 1 -a 2 -x {2.0 5.0 -1 ------- null}
r -t 0.1100032 -s 0 -d 1 -p tcp -e 40 -c 1 -i 0 -a 1 -x {0.0 4.0 0 ------- null}
+ -t 0.1100032 -s 1 -d 3 -p tcp -e 40 -c 1 -i 0 -a 1 -x {0.0 4.0 0 ------- null}
- -t 0.1100032 -s 1 -d 3 -p tcp -e 40 -c 1 -i 0 -a 1 -x {0.0 4.0 0 ------- null}
h -t 0.1100032 -s 1 -d 3 -p tcp -e 40 -c 1 -i 0 -a 1 -x {0.0 4.0 -1 ------- null}
r -t 0.1100032 -s 2 -d 1 -p tcp -e 40 -c 2 -i 1 -a 2 -x {2.0 5.0 0 ------- null}
+ -t 0.1100032 -s 1 -d 3 -p tcp -e 40 -c 2 -i 1 -a 2 -x {2.0 5.0 0 ------- null}
- -t 0.1100064 -s 1 -d 3 -p tcp -e 40 -c 2 -i 1 -a 2 -x {2.0 5.0 0 ------- null}
h -t 0.1100064 -s 1 -d 3 -p tcp -e 40 -c 2 -i 1 -a 2 -x {2.0 5.0 -1 ------- null}
r -t 0.1200064 -s 1 -d 3 -p tcp -e 40 -c 1 -i 0 -a 1 -x {0.0 4.0 0 ------- null}
h -t 0.1200064 -s 3 -d 6 -p tcp -e 40 -c 1 -i 0 -a 1 -x {0.0 4.0 0 ------- null}
r -t 0.1200096 -s 1 -d 3 -p tcp -e 40 -c 2 -i 1 -a 2 -x {2.0 5.0 0 ------- null}
h -t 0.1200096 -s 3 -d 6 -p tcp -e 40 -c 2 -i 1 -a 2 -x {2.0 5.0 0 ------- null}
+ -t 0.1600064 -s 3 -d 6 -p tcp -e 40 -c 1 -i 0 -a 1 -x {0.0 4.0 0 ------- null}
- -t 0.1600064 -s 3 -d 6 -p tcp -e 40 -c 1 -i 0 -a 1 -x {0.0 4.0 0 ------- null}
h -t 0.1600064 -s 3 -d 6 -p tcp -e 40 -c 1 -i 0 -a 1 -x {0.0 4.0 -1 ------- null}
+ -t 0.1600096 -s 3 -d 6 -p tcp -e 40 -c 2 -i 1 -a 2 -x {2.0 5.0 0 ------- null}
d -t 0.1600104 -s 5 -d 6 -p tcp -e 40 -c 1 -i 0 -a 1 -x {0.0 4.0 0 ------- null}
- -t 0.1604224 -s 3 -d 6 -p tcp -e 40 -c 2 -i 1 -a 2 -x {2.0 5.0 0 ------- null}
h -t 0.1604224 -s 3 -d 6 -p tcp -e 40 -c 2 -i 1 -a 2 -x {2.0 5.0 -1 ------- null}
d -t 0.1604264 -s 4 -d 6 -p tcp -e 40 -c 2 -i 1 -a 2 -x {2.0 5.0 0 ------- null}
r -t 0.2000104 -s 6 -d 4 -p tcp -e 40 -c 1 -i 0 -a 1 -x {0.0 4.0 0 ------- null}
h -t 0.2000104 -s 4 -d 6 -p ack -e 40 -c 1 -i 2 -a 1 -x {4.0 0.0 0 ------- null}
r -t 0.2004264 -s 6 -d 5 -p tcp -e 40 -c 2 -i 1 -a 2 -x {2.0 5.0 0 ------- null}
h -t 0.2004264 -s 5 -d 6 -p ack -e 40 -c 2 -i 3 -a 2 -x {5.0 2.0 0 ------- null}
+ -t 0.2400104 -s 4 -d 6 -p ack -e 40 -c 1 -i 2 -a 1 -x {4.0 0.0 0 ------- null}
- -t 0.2400104 -s 4 -d 6 -p ack -e 40 -c 1 -i 2 -a 1 -x {4.0 0.0 0 ------- null}
h -t 0.2400104 -s 4 -d 6 -p ack -e 40 -c 1 -i 2 -a 1 -x {4.0 0.0 -1 ------- null}
d -t 0.2400144 -s 5 -d 6 -p ack -e 40 -c 1 -i 2 -a 1 -x {4.0 0.0 0 ------- null}
+ -t 0.2404264 -s 5 -d 6 -p ack -e 40 -c 2 -i 3 -a 2 -x {5.0 2.0 0 ------- null}
- -t 0.2404264 -s 5 -d 6 -p ack -e 40 -c 2 -i 3 -a 2 -x {5.0 2.0 0 ------- null}
h -t 0.2404264 -s 5 -d 6 -p ack -e 40 -c 2 -i 3 -a 2 -x {5.0 2.0 -1 ------- null}
d -t 0.2404304 -s 4 -d 6 -p ack -e 40 -c 2 -i 3 -a 2 -x {5.0 2.0 0 ------- null}
r -t 0.2800144 -s 6 -d 3 -p ack -e 40 -c 1 -i 2 -a 1 -x {4.0 0.0 0 ------- null}
+ -t 0.2800144 -s 3 -d 1 -p ack -e 40 -c 1 -i 2 -a 1 -x {4.0 0.0 0 ------- null}
- -t 0.2800144 -s 3 -d 1 -p ack -e 40 -c 1 -i 2 -a 1 -x {4.0 0.0 0 ------- null}
h -t 0.2800144 -s 3 -d 1 -p ack -e 40 -c 1 -i 2 -a 1 -x {4.0 0.0 -1 ------- null}
r -t 0.2804304 -s 6 -d 3 -p ack -e 40 -c 2 -i 3 -a 2 -x {5.0 2.0 0 ------- null}
+ -t 0.2804304 -s 3 -d 1 -p ack -e 40 -c 2 -i 3 -a 2 -x {5.0 2.0 0 ------- null}
- -t 0.2804304 -s 3 -d 1 -p ack -e 40 -c 2 -i 3 -a 2 -x {5.0 2.0 0 ------- null}
h -t 0.2804304 -s 3 -d 1 -p ack -e 40 -c 2 -i 3 -a 2 -x {5.0 2.0 -1 ------- null}
r -t 0.2900176 -s 3 -d 1 -p ack -e 40 -c 1 -i 2 -a 1 -x {4.0 0.0 0 ------- null}
+ -t 0.2900176 -s 1 -d 0 -p ack -e 40 -c 1 -i 2 -a 1 -x {4.0 0.0 0 ------- null}
- -t 0.2900176 -s 1 -d 0 -p ack -e 40 -c 1 -i 2 -a 1 -x {4.0 0.0 0 ------- null}
h -t 0.2900176 -s 1 -d 0 -p ack -e 40 -c 1 -i 2 -a 1 -x {4.0 0.0 -1 ------- null}
r -t 0.2904336 -s 3 -d 1 -p ack -e 40 -c 2 -i 3 -a 2 -x {5.0 2.0 0 ------- null}
+ -t 0.2904336 -s 1 -d 2 -p ack -e 40 -c 2 -i 3 -a 2 -x {5.0 2.0 0 ------- null}
- -t 0.2904336 -s 1 -d 2 -p ack -e 40 -c 2 -i 3 -a 2 -x {5.0 2.0 0 ------- null}
h -t 0.2904336 -s 1 -d 2 -p ack -e 40 -c 2 -i 3 -a 2 -x {5.0 2.0 -1 ------- null}
r -t 0.3000208 -s 1 -d 0 -p ack -e 40 -c 1 -i 2 -a 1 -x {4.0 0.0 0 ------- null}
+ -t 0.3000208 -s 0 -d 1 -p tcp -e 1540 -c 1 -i 4 -a 1 -x {0.0 4.0 1 ------- null}
- -t 0.3000208 -s 0 -d 1 -p tcp -e 1540 -c 1 -i 4 -a 1 -x {0.0 4.0 1 ------- null}
h -t 0.3000208 -s 0 -d 1 -p tcp -e 1540 -c 1 -i 4 -a 1 -x {0.0 4.0 -1 ------- null}
+ -t 0.3000208 -s 0 -d 1 -p tcp -e 1540 -c 1 -i 5 -a 1 -x {0.0 4.0 2 ------- null}
- -t 0.300144 -s 0 -d 1 -p tcp -e 1540 -c 1 -i 5 -a 1 -x {0.0 4.0 2 ------- null}
h -t 0.300144 -s 0 -d 1 -p tcp -e 1540 -c 1 -i 5 -a 1 -x {0.0 4.0 -1 ------- null}
r -t 0.3004368 -s 1 -d 2 -p ack -e 40 -c 2 -i 3 -a 2 -x {5.0 2.0 0 ------- null}
+ -t 0.3004368 -s 2 -d 1 -p tcp -e 1540 -c 2 -i 6 -a 2 -x {2.0 5.0 1 ------- null}
- -t 0.3004368 -s 2 -d 1 -p tcp -e 1540 -c 2 -i 6 -a 2 -x {2.0 5.0 1 ------- null}
h -t 0.3004368 -s 2 -d 1 -p tcp -e 1540 -c 2 -i 6 -a 2 -x {2.0 5.0 -1 ------- null}
+ -t 0.3004368 -s 2 -d 1 -p tcp -e 1540 -c 2 -i 7 -a 2 -x {2.0 5.0 2 ------- null}
- -t 0.30056 -s 2 -d 1 -p tcp -e 1540 -c 2 -i 7 -a 2 -x {2.0 5.0 2 ------- null}
h -t 0.30056 -s 2 -d 1 -p tcp -e 1540 -c 2 -i 7 -a 2 -x {2.0 5.0 -1 ------- null}
r -t 0.310144 -s 0 -d 1 -p tcp -e 1540 -c 1 -i 4 -a 1 -x {0.0 4.0 1 ------- null}
+ -t 0.310144 -s 1 -d 3 -p tcp -e 1540 -c 1 -i 4 -a 1 -x {0.0 4.0 1 ------- null}
- -t 0.310144 -s 1 -d 3 -p tcp -e 1540 -c 1 -i 4 -a 1 -x {0.0 4.0 1 ------- null}
h -t 0.310144 -s 1 -d 3 -p tcp -e 1540 -c 1 -i 4 -a 1 -x {0.0 4.0 -1 ------- null}
r -t 0.3102672 -s 0 -d 1 -p tcp -e 1540 -c 1 -i 5 -a 1 -x {0.0 4.0 2 ------- null}
+ -t 0.3102672 -s 1 -d 3 -p tcp -e 1540 -c 1 -i 5 -a 1 -x {0.0 4.0 2 ------- null}
- -t 0.3102672 -s 1 -d 3 -p tcp -e 1540 -c 1 -i 5 -a 1 -x {0.0 4.0 2 ------- null}
h -t 0.3102672 -s 1 -d 3 -p tcp -e 1540 -c 1 -i 5 -a 1 -x {0.0 4.0 -1 ------- null}
r -t 0.31056 -s 2 -d 1 -p tcp -e 1540 -c 2 -i 6 -a 2 -x {2.0 5.0 1 ------- null}
+ -t 0.31056 -s 1 -d 3 -p tcp -e 1540 -c 2 -i 6 -a 2 -x {2.0 5.0 1 ------- null}
- -t 0.31056 -s 1 -d 3 -p tcp -e 1540 -c 2 -i 6 -a 2 -x {2.0 5.0 1 ------- null}
h -t 0.31056 -s 1 -d 3 -p tcp -e 1540 -c 2 -i 6 -a 2 -x {2.0 5.0 -1 ------- null}
r -t 0.3106832 -s 2 -d 1 -p tcp -e 1540 -c 2 -i 7 -a 2 -x {2.0 5.0 2 ------- null}
+ -t 0.3106832 -s 1 -d 3 -p tcp -e 1540 -c 2 -i 7 -a 2 -x {2.0 5.0 2 ------- null}
- -t 0.3106832 -s 1 -d 3 -p tcp -e 1540 -c 2 -i 7 -a 2 -x {2.0 5.0 2 ------- null}
h -t 0.3106832 -s 1 -d 3 -p tcp -e 1540 -c 2 -i 7 -a 2 -x {2.0 5.0 -1 ------- null}
r -t 0.3202672 -s 1 -d 3 -p tcp -e 1540 -c 1 -i 4 -a 1 -x {0.0 4.0 1 ------- null}
h -t 0.3202672 -s 3 -d 6 -p tcp -e 1540 -c 1 -i 4 -a 1 -x {0.0 4.0 1 ------- null}
r -t 0.3203904 -s 1 -d 3 -p tcp -e 1540 -c 1 -i 5 -a 1 -x {0.0 4.0 2 ------- null}
h -t 0.3203904 -s 3 -d 6 -p tcp -e 1540 -c 1 -i 5 -a 1 -x {0.0 4.0 2 ------- null}
r -t 0.3206832 -s 1 -d 3 -p tcp -e 1540 -c 2 -i 6 -a 2 -x {2.0 5.0 1 ------- null}
h -t 0.3206832 -s 3 -d 6 -p tcp -e 1540 -c 2 -i 6 -a 2 -x {2.0 5.0 1 ------- null}
r -t 0.3208064 -s 1 -d 3 -p tcp -e 1540 -c 2 -i 7 -a 2 -x {2.0 5.0 2 ------- null}
h -t 0.3208064 -s 3 -d 6 -p tcp -e 1540 -c 2 -i 7 -a 2 -x {2.0 5.0 2 ------- null}
+ -t 0.3602672 -s 3 -d 6 -p tcp -e 1540 -c 1 -i 4 -a 1 -x {0.0 4.0 1 ------- null}
- -t 0.3602672 -s 3 -d 6 -p tcp -e 1540 -c 1 -i 4 -a 1 -x {0.0 4.0 1 ------- null}
h -t 0.3602672 -s 3 -d 6 -p tcp -e 1540 -c 1 -i 4 -a 1 -x {0.0 4.0 -1 ------- null}
d -t 0.3602712 -s 5 -d 6 -p tcp -e 1540 -c 1 -i 4 -a 1 -x {0.0 4.0 1 ------- null}
+ -t 0.3603904 -s 3 -d 6 -p tcp -e 1540 -c 1 -i 5 -a 1 -x {0.0 4.0 2 ------- null}
+ -t 0.3606832 -s 3 -d 6 -p tcp -e 1540 -c 2 -i 6 -a 2 -x {2.0 5.0 1 ------- null}
+ -t 0.3608064 -s 3 -d 6 -p tcp -e 1540 -c 2 -i 7 -a 2 -x {2.0 5.0 2 ------- null}
- -t 0.3666832 -s 3 -d 6 -p tcp -e 1540 -c 1 -i 5 -a 1 -x {0.0 4.0 2 ------- null}
h -t 0.3666832 -s 3 -d 6 -p tcp -e 1540 -c 1 -i 5 -a 1 -x {0.0 4.0 -1 ------- null}
d -t 0.3666872 -s 5 -d 6 -p tcp -e 1540 -c 1 -i 5 -a 1 -x {0.0 4.0 2 ------- null}
- -t 0.3730992 -s 3 -d 6 -p tcp -e 1540 -c 2 -i 6 -a 2 -x {2.0 5.0 1 ------- null}
h -t 0.3730992 -s 3 -d 6 -p tcp -e 1540 -c 2 -i 6 -a 2 -x {2.0 5.0 -1 ------- null}
d -t 0.3731032 -s 4 -d 6 -p tcp -e 1540 -c 2 -i 6 -a 2 -x {2.0 5.0 1 ------- null}
- -t 0.3795152 -s 3 -d 6 -p tcp -e 1540 -c 2 -i 7 -a 2 -x {2.0 5.0 2 ------- null}
h -t 0.3795152 -s 3 -d 6 -p tcp -e 1540 -c 2 -i 7 -a 2 -x {2.0 5.0 -1 ------- null}
d -t 0.3795192 -s 4 -d 6 -p tcp -e 1540 -c 2 -i 7 -a 2 -x {2.0 5.0 2 ------- null}
r -t 0.4002712 -s 6 -d 4 -p tcp -e 1540 -c 1 -i 4 -a 1 -x {0.0 4.0 1 ------- null}
h -t 0.4002712 -s 4 -d 6 -p ack -e 40 -c 1 -i 8 -a 1 -x {4.0 0.0 1 ------- null}
r -t 0.4066872 -s 6 -d 4 -p tcp -e 1540 -c 1 -i 5 -a 1 -x {0.0 4.0 2 ------- null}
h -t 0.4066872 -s 4 -d 6 -p ack -e 40 -c 1 -i 9 -a 1 -x {4.0 0.0 2 ------- null}
r -t 0.4131032 -s 6 -d 5 -p tcp -e 1540 -c 2 -i 6 -a 2 -x {2.0 5.0 1 ------- null}
h -t 0.4131032 -s 5 -d 6 -p ack -e 40 -c 2 -i 10 -a 2 -x {5.0 2.0 1 ------- null}
r -t 0.4195192 -s 6 -d 5 -p tcp -e 1540 -c 2 -i 7 -a 2 -x {2.0 5.0 2 ------- null}
h -t 0.4195192 -s 5 -d 6 -p ack -e 40 -c 2 -i 11 -a 2 -x {5.0 2.0 2 ------- null}
+ -t 0.4402712 -s 4 -d 6 -p ack -e 40 -c 1 -i 8 -a 1 -x {4.0 0.0 1 ------- null}
- -t 0.4402712 -s 4 -d 6 -p ack -e 40 -c 1 -i 8 -a 1 -x {4.0 0.0 1 ------- null}
h -t 0.4402712 -s 4 -d 6 -p ack -e 40 -c 1 -i 8 -a 1 -x {4.0 0.0 -1 ------- null}
d -t 0.4402752 -s 5 -d 6 -p ack -e 40 -c 1 -i 8 -a 1 -x {4.0 0.0 1 ------- null}
+ -t 0.4466872 -s 4 -d 6 -p ack -e 40 -c 1 -i 9 -a 1 -x {4.0 0.0 2 ------- null}
- -t 0.4466872 -s 4 -d 6 -p ack -e 40 -c 1 -i 9 -a 1 -x {4.0 0.0 2 ------- null}
h -t 0.4466872 -s 4 -d 6 -p ack -e 40 -c 1 -i 9 -a 1 -x {4.0 0.0 -1 ------- null}
d -t 0.4466912 -s 5 -d 6 -p ack -e 40 -c 1 -i 9 -a 1 -x {4.0 0.0 2 ------- null}
+ -t 0.4531032 -s 5 -d 6 -p ack -e 40 -c 2 -i 10 -a 2 -x {5.0 2.0 1 ------- null}
- -t 0.4531032 -s 5 -d 6 -p ack -e 40 -c 2 -i 10 -a 2 -x {5.0 2.0 1 ------- null}
h -t 0.4531032 -s 5 -d 6 -p ack -e 40 -c 2 -i 10 -a 2 -x {5.0 2.0 -1 ------- null}
d -t 0.4531072 -s 4 -d 6 -p ack -e 40 -c 2 -i 10 -a 2 -x {5.0 2.0 1 ------- null}
+ -t 0.4595192 -s 5 -d 6 -p ack -e 40 -c 2 -i 11 -a 2 -x {5.0 2.0 2 ------- null}
- -t 0.4595192 -s 5 -d 6 -p ack -e 40 -c 2 -i 11 -a 2 -x {5.0 2.0 2 ------- null}
h -t 0.4595192 -s 5 -d 6 -p ack -e 40 -c 2 -i 11 -a 2 -x {5.0 2.0 -1 ------- null}
d -t 0.4595232 -s 4 -d 6 -p ack -e 40 -c 2 -i 11 -a 2 -x {5.0 2.0 2 ------- null}
r -t 0.4802752 -s 6 -d 3 -p ack -e 40 -c 1 -i 8 -a 1 -x {4.0 0.0 1 ------- null}
+ -t 0.4802752 -s 3 -d 1 -p ack -e 40 -c 1 -i 8 -a 1 -x {4.0 0.0 1 ------- null}
- -t 0.4802752 -s 3 -d 1 -p ack -e 40 -c 1 -i 8 -a 1 -x {4.0 0.0 1 ------- null}
h -t 0.4802752 -s 3 -d 1 -p ack -e 40 -c 1 -i 8 -a 1 -x {4.0 0.0 -1 ------- null}
r -t 0.4866912 -s 6 -d 3 -p ack -e 40 -c 1 -i 9 -a 1 -x {4.0 0.0 2 ------- null}
+ -t 0.4866912 -s 3 -d 1 -p ack -e 40 -c 1 -i 9 -a 1 -x {4.0 0.0 2 ------- null}
- -t 0.4866912 -s 3 -d 1 -p ack -e 40 -c 1 -i 9 -a 1 -x {4.0 0.0 2 ------- null}
h -t 0.4866912 -s 3 -d 1 -p ack -e 40 -c 1 -i 9 -a 1 -x {4.0 0.0 -1 ------- null}
r -t 0.4902784 -s 3 -d 1 -p ack -e 40 -c 1 -i 8 -a 1 -x {4.0 0.0 1 ------- null}
+ -t 0.4902784 -s 1 -d 0 -p ack -e 40 -c 1 -i 8 -a 1 -x {4.0 0.0 1 ------- null}
- -t 0.4902784 -s 1 -d 0 -p ack -e 40 -c 1 -i 8 -a 1 -x {4.0 0.0 1 ------- null}
h -t 0.4902784 -s 1 -d 0 -p ack -e 40 -c 1 -i 8 -a 1 -x {4.0 0.0 -1 ------- null}
r -t 0.4931072 -s 6 -d 3 -p ack -e 40 -c 2 -i 10 -a 2 -x {5.0 2.0 1 ------- null}
+ -t 0.4931072 -s 3 -d 1 -p ack -e 40 -c 2 -i 10 -a 2 -x {5.0 2.0 1 ------- null}
- -t 0.4931072 -s 3 -d 1 -p ack -e 40 -c 2 -i 10 -a 2 -x {5.0 2.0 1 ------- null}
h -t 0.4931072 -s 3 -d 1 -p ack -e 40 -c 2 -i 10 -a 2 -x {5.0 2.0 -1 ------- null}
r -t 0.4966944 -s 3 -d 1 -p ack -e 40 -c 1 -i 9 -a 1 -x {4.0 0.0 2 ------- null}
+ -t 0.4966944 -s 1 -d 0 -p ack -e 40 -c 1 -i 9 -a 1 -x {4.0 0.0 2 ------- null}
- -t 0.4966944 -s 1 -d 0 -p ack -e 40 -c 1 -i 9 -a 1 -x {4.0 0.0 2 ------- null}
h -t 0.4966944 -s 1 -d 0 -p ack -e 40 -c 1 -i 9 -a 1 -x {4.0 0.0 -1 ------- null}
r -t 0.4995232 -s 6 -d 3 -p ack -e 40 -c 2 -i 11 -a 2 -x {5.0 2.0 2 ------- null}
+ -t 0.4995232 -s 3 -d 1 -p ack -e 40 -c 2 -i 11 -a 2 -x {5.0 2.0 2 ------- null}
- -t 0.4995232 -s 3 -d 1 -p ack -e 40 -c 2 -i 11 -a 2 -x {5.0 2.0 2 ------- null}
h -t 0.4995232 -s 3 -d 1 -p ack -e 40 -c 2 -i 11 -a 2 -x {5.0 2.0 -1 ------- null}
r -t 0.5002816 -s 1 -d 0 -p ack -e 40 -c 1 -i 8 -a 1 -x {4.0 0.0 1 ------- null}
+ -t 0.5002816 -s 0 -d 1 -p tcp -e 1540 -c 1 -i 12 -a 1 -x {0.0 4.0 3 ------- null}
- -t 0.5002816 -s 0 -d 1 -p tcp -e 1540 -c 1 -i 12 -a 1 -x {0.0 4.0 3 ------- null}
h -t 0.5002816 -s 0 -d 1 -p tcp -e 1540 -c 1 -i 12 -a 1 -x {0.0 4.0 -1 ------- null}
+ -t 0.5002816 -s 0 -d 1 -p tcp -e 1540 -c 1 -i 13 -a 1 -x {0.0 4.0 4 ------- null}
- -t 0.5004048 -s 0 -d 1 -p tcp -e 1540 -c 1 -i 13 -a 1 -x {0.0 4.0 4 ------- null}
h -t 0.5004048 -s 0 -d 1 -p tcp -e 1540 -c 1 -i 13 -a 1 -x {0.0 4.0 -1 ------- null}
r -t 0.5031104 -s 3 -d 1 -p ack -e 40 -c 2 -i 10 -a 2 -x {5.0 2.0 1 ------- null}
+ -t 0.5031104 -s 1 -d 2 -p ack -e 40 -c 2 -i 10 -a 2 -x {5.0 2.0 1 ------- null}
- -t 0.5031104 -s 1 -d 2 -p ack -e 40 -c 2 -i 10 -a 2 -x {5.0 2.0 1 ------- null}
h -t 0.5031104 -s 1 -d 2 -p ack -e 40 -c 2 -i 10 -a 2 -x {5.0 2.0 -1 ------- null}
r -t 0.5066976 -s 1 -d 0 -p ack -e 40 -c 1 -i 9 -a 1 -x {4.0 0.0 2 ------- null}
+ -t 0.5066976 -s 0 -d 1 -p tcp -e 1540 -c 1 -i 14 -a 1 -x {0.0 4.0 5 ------- null}
- -t 0.5066976 -s 0 -d 1 -p tcp -e 1540 -c 1 -i 14 -a 1 -x {0.0 4.0 5 ------- null}
h -t 0.5066976 -s 0 -d 1 -p tcp -e 1540 -c 1 -i 14 -a 1 -x {0.0 4.0 -1 ------- null}
+ -t 0.5066976 -s 0 -d 1 -p tcp -e 1540 -c 1 -i 15 -a 1 -x {0.0 4.0 6 ------- null}
- -t 0.5068208 -s 0 -d 1 -p tcp -e 1540 -c 1 -i 15 -a 1 -x {0.0 4.0 6 ------- null}
h -t 0.5068208 -s 0 -d 1 -p tcp -e 1540 -c 1 -i 15 -a 1 -x {0.0 4.0 -1 ------- null}
r -t 0.5095264 -s 3 -d 1 -p ack -e 40 -c 2 -i 11 -a 2 -x {5.0 2.0 2 ------- null}
+ -t 0.5095264 -s 1 -d 2 -p ack -e 40 -c 2 -i 11 -a 2 -x {5.0 2.0 2 ------- null}
- -t 0.5095264 -s 1 -d 2 -p ack -e 40 -c 2 -i 11 -a 2 -x {5.0 2.0 2 ------- null}
h -t 0.5095264 -s 1 -d 2 -p ack -e 40 -c 2 -i 11 -a 2 -x {5.0 2.0 -1 ------- null}
r -t 0.5104048 -s 0 -d 1 -p tcp -e 1540 -c 1 -i 12 -a 1 -x {0.0 4.0 3 ------- null}
+ -t 0.5104048 -s 1 -d 3 -p tcp -e 1540 -c 1 -i 12 -a 1 -x {0.0 4.0 3 ------- null}
- -t 0.5104048 -s 1 -d 3 -p tcp -e 1540 -c 1 -i 12 -a 1 -x {0.0 4.0 3 ------- null}
h -t 0.5104048 -s 1 -d 3 -p tcp -e 1540 -c 1 -i 12 -a 1 -x {0.0 4.0 -1 ------- null}
r -t 0.510528 -s 0 -d 1 -p tcp -e 1540 -c 1 -i 13 -a 1 -x {0.0 4.0 4 ------- null}
+ -t 0.510528 -s 1 -d 3 -p tcp -e 1540 -c 1 -i 13 -a 1 -x {0.0 4.0 4 ------- null}
- -t 0.510528 -s 1 -d 3 -p tcp -e 1540 -c 1 -i 13 -a 1 -x {0.0 4.0 4 ------- null}
h -t 0.510528 -s 1 -d 3 -p tcp -e 1540 -c 1 -i 13 -a 1 -x {0.0 4.0 -1 ------- null}
r -t 0.5131136 -s 1 -d 2 -p ack -e 40 -c 2 -i 10 -a 2 -x {5.0 2.0 1 ------- null}
+ -t 0.5131136 -s 2 -d 1 -p tcp -e 1540 -c 2 -i 16 -a 2 -x {2.0 5.0 3 ------- null}
- -t 0.5131136 -s 2 -d 1 -p tcp -e 1540 -c 2 -i 16 -a 2 -x {2.0 5.0 3 ------- null}
h -t 0.5131136 -s 2 -d 1 -p tcp -e 1540 -c 2 -i 16 -a 2 -x {2.0 5.0 -1 ------- null}
+ -t 0.5131136 -s 2 -d 1 -p tcp -e 1540 -c 2 -i 17 -a 2 -x {2.0 5.0 4 ------- null}
- -t 0.5132368 -s 2 -d 1 -p tcp -e 1540 -c 2 -i 17 -a 2 -x {2.0 5.0 4 ------- null}
h -t 0.5132368 -s 2 -d 1 -p tcp -e 1540 -c 2 -i 17 -a 2 -x {2.0 5.0 -1 ------- null}
r -t 0.5168208 -s 0 -d 1 -p tcp -e 1540 -c 1 -i 14 -a 1 -x {0.0 4.0 5 ------- null}
+ -t 0.5168208 -s 1 -d 3 -p tcp -e 1540 -c 1 -i 14 -a 1 -x {0.0 4.0 5 ------- null}
- -t 0.5168208 -s 1 -d 3 -p tcp -e 1540 -c 1 -i 14 -a 1 -x {0.0 4.0 5 ------- null}
h -t 0.5168208 -s 1 -d 3 -p tcp -e 1540 -c 1 -i 14 -a 1 -x {0.0 4.0 -1 ------- null}
r -t 0.516944 -s 0 -d 1 -p tcp -e 1540 -c 1 -i 15 -a 1 -x {0.0 4.0 6 ------- null}
+ -t 0.516944 -s 1 -d 3 -p tcp -e 1540 -c 1 -i 15 -a 1 -x {0.0 4.0 6 ------- null}
- -t 0.516944 -s 1 -d 3 -p tcp -e 1540 -c 1 -i 15 -a 1 -x {0.0 4.0 6 ------- null}
h -t 0.516944 -s 1 -d 3 -p tcp -e 1540 -c 1 -i 15 -a 1 -x {0.0 4.0 -1 ------- null}
r -t 0.5195296 -s 1 -d 2 -p ack -e 40 -c 2 -i 11 -a 2 -x {5.0 2.0 2 ------- null}
+ -t 0.5195296 -s 2 -d 1 -p tcp -e 1540 -c 2 -i 18 -a 2 -x {2.0 5.0 5 ------- null}
- -t 0.5195296 -s 2 -d 1 -p tcp -e 1540 -c 2 -i 18 -a 2 -x {2.0 5.0 5 ------- null}
h -t 0.5195296 -s 2 -d 1 -p tcp -e 1540 -c 2 -i 18 -a 2 -x {2.0 5.0 -1 ------- null}
+ -t 0.5195296 -s 2 -d 1 -p tcp -e 1540 -c 2 -i 19 -a 2 -x {2.0 5.0 6 ------- null}
- -t 0.5196528 -s 2 -d 1 -p tcp -e 1540 -c 2 -i 19 -a 2 -x {2.0 5.0 6 ------- null}
h -t 0.5196528 -s 2 -d 1 -p tcp -e 1540 -c 2 -i 19 -a 2 -x {2.0 5.0 -1 ------- null}
r -t 0.520528 -s 1 -d 3 -p tcp -e 1540 -c 1 -i 12 -a 1 -x {0.0 4.0 3 ------- null}
h -t 0.520528 -s 3 -d 6 -p tcp -e 1540 -c 1 -i 12 -a 1 -x {0.0 4.0 3 ------- null}
r -t 0.5206512 -s 1 -d 3 -p tcp -e 1540 -c 1 -i 13 -a 1 -x {0.0 4.0 4 ------- null}
h -t 0.5206512 -s 3 -d 6 -p tcp -e 1540 -c 1 -i 13 -a 1 -x {0.0 4.0 4 ------- null}
r -t 0.5232368 -s 2 -d 1 -p tcp -e 1540 -c 2 -i 16 -a 2 -x {2.0 5.0 3 ------- null}
+ -t 0.5232368 -s 1 -d 3 -p tcp -e 1540 -c 2 -i 16 -a 2 -x {2.0 5.0 3 ------- null}
- -t 0.5232368 -s 1 -d 3 -p tcp -e 1540 -c 2 -i 16 -a 2 -x {2.0 5.0 3 ------- null}
h -t 0.5232368 -s 1 -d 3 -p tcp -e 1540 -c 2 -i 16 -a 2 -x {2.0 5.0 -1 ------- null}
r -t 0.52336 -s 2 -d 1 -p tcp -e 1540 -c 2 -i 17 -a 2 -x {2.0 5.0 4 ------- null}
+ -t 0.52336 -s 1 -d 3 -p tcp -e 1540 -c 2 -i 17 -a 2 -x {2.0 5.0 4 ------- null}
- -t 0.52336 -s 1 -d 3 -p tcp -e 1540 -c 2 -i 17 -a 2 -x {2.0 5.0 4 ------- null}
h -t 0.52336 -s 1 -d 3 -p tcp -e 1540 -c 2 -i 17 -a 2 -x {2.0 5.0 -1 ------- null}
r -t 0.526944 -s 1 -d 3 -p tcp -e 1540 -c 1 -i 14 -a 1 -x {0.0 4.0 5 ------- null}
h -t 0.526944 -s 3 -d 6 -p tcp -e 1540 -c 1 -i 14 -a 1 -x {0.0 4.0 5 ------- null}
r -t 0.5270672 -s 1 -d 3 -p tcp -e 1540 -c 1 -i 15 -a 1 -x {0.0 4.0 6 ------- null}
h -t 0.5270672 -s 3 -d 6 -p tcp -e 1540 -c 1 -i 15 -a 1 -x {0.0 4.0 6 ------- null}
r -t 0.5296528 -s 2 -d 1 -p tcp -e 1540 -c 2 -i 18 -a 2 -x {2.0 5.0 5 ------- null}
+ -t 0.5296528 -s 1 -d 3 -p tcp -e 1540 -c 2 -i 18 -a 2 -x {2.0 5.0 5 ------- null}
- -t 0.5296528 -s 1 -d 3 -p tcp -e 1540 -c 2 -i 18 -a 2 -x {2.0 5.0 5 ------- null}
h -t 0.5296528 -s 1 -d 3 -p tcp -e 1540 -c 2 -i 18 -a 2 -x {2.0 5.0 -1 ------- null}
r -t 0.529776 -s 2 -d 1 -p tcp -e 1540 -c 2 -i 19 -a 2 -x {2.0 5.0 6 ------- null}
+ -t 0.529776 -s 1 -d 3 -p tcp -e 1540 -c 2 -i 19 -a 2 -x {2.0 5.0 6 ------- null}
- -t 0.529776 -s 1 -d 3 -p tcp -e 1540 -c 2 -i 19 -a 2 -x {2.0 5.0 6 ------- null}
h -t 0.529776 -s 1 -d 3 -p tcp -e 1540 -c 2 -i 19 -a 2 -x {2.0 5.0 -1 ------- null}
r -t 0.53336 -s 1 -d 3 -p tcp -e 1540 -c 2 -i 16 -a 2 -x {2.0 5.0 3 ------- null}
h -t 0.53336 -s 3 -d 6 -p tcp -e 1540 -c 2 -i 16 -a 2 -x {2.0 5.0 3 ------- null}
r -t 0.5334832 -s 1 -d 3 -p tcp -e 1540 -c 2 -i 17 -a 2 -x {2.0 5.0 4 ------- null}
h -t 0.5334832 -s 3 -d 6 -p tcp -e 1540 -c 2 -i 17 -a 2 -x {2.0 5.0 4 ------- null}
r -t 0.539776 -s 1 -d 3 -p tcp -e 1540 -c 2 -i 18 -a 2 -x {2.0 5.0 5 ------- null}
h -t 0.539776 -s 3 -d 6 -p tcp -e 1540 -c 2 -i 18 -a 2 -x {2.0 5.0 5 ------- null}
r -t 0.5398992 -s 1 -d 3 -p tcp -e 1540 -c 2 -i 19 -a 2 -x {2.0 5.0 6 ------- null}
h -t 0.5398992 -s 3 -d 6 -p tcp -e 1540 -c 2 -i 19 -a 2 -x {2.0 5.0 6 ------- null}
+ -t 0.560528 -s 3 -d 6 -p tcp -e 1540 -c 1 -i 12 -a 1 -x {0.0 4.0 3 ------- null}
- -t 0.560528 -s 3 -d 6 -p tcp -e 1540 -c 1 -i 12 -a 1 -x {0.0 4.0 3 ------- null}
h -t 0.560528 -s 3 -d 6 -p tcp -e 1540 -c 1 -i 12 -a 1 -x {0.0 4.0 -1 ------- null}
d -t 0.560532 -s 5 -d 6 -p tcp -e 1540 -c 1 -i 12 -a 1 -x {0.0 4.0 3 ------- null}
+ -t 0.5606512 -s 3 -d 6 -p tcp -e 1540 -c 1 -i 13 -a 1 -x {0.0 4.0 4 ------- null}
+ -t 0.566944 -s 3 -d 6 -p tcp -e 1540 -c 1 -i 14 -a 1 -x {0.0 4.0 5 ------- null}
- -t 0.566944 -s 3 -d 6 -p tcp -e 1540 -c 1 -i 13 -a 1 -x {0.0 4.0 4 ------- null}
h -t 0.566944 -s 3 -d 6 -p tcp -e 1540 -c 1 -i 13 -a 1 -x {0.0 4.0 -1 ------- null}
d -t 0.566948 -s 5 -d 6 -p tcp -e 1540 -c 1 -i 13 -a 1 -x {0.0 4.0 4 ------- null}
+ -t 0.5670672 -s 3 -d 6 -p tcp -e 1540 -c 1 -i 15 -a 1 -x {0.0 4.0 6 ------- null}
+ -t 0.57336 -s 3 -d 6 -p tcp -e 1540 -c 2 -i 16 -a 2 -x {2.0 5.0 3 ------- null}
- -t 0.57336 -s 3 -d 6 -p tcp -e 1540 -c 1 -i 14 -a 1 -x {0.0 4.0 5 ------- null}
h -t 0.57336 -s 3 -d 6 -p tcp -e 1540 -c 1 -i 14 -a 1 -x {0.0 4.0 -1 ------- null}
d -t 0.573364 -s 5 -d 6 -p tcp -e 1540 -c 1 -i 14 -a 1 -x {0.0 4.0 5 ------- null}
+ -t 0.5734832 -s 3 -d 6 -p tcp -e 1540 -c 2 -i 17 -a 2 -x {2.0 5.0 4 ------- null}
+ -t 0.579776 -s 3 -d 6 -p tcp -e 1540 -c 2 -i 18 -a 2 -x {2.0 5.0 5 ------- null}
- -t 0.579776 -s 3 -d 6 -p tcp -e 1540 -c 1 -i 15 -a 1 -x {0.0 4.0 6 ------- null}
h -t 0.579776 -s 3 -d 6 -p tcp -e 1540 -c 1 -i 15 -a 1 -x {0.0 4.0 -1 ------- null}
d -t 0.57978 -s 5 -d 6 -p tcp -e 1540 -c 1 -i 15 -a 1 -x {0.0 4.0 6 ------- null}
+ -t 0.5798992 -s 3 -d 6 -p tcp -e 1540 -c 2 -i 19 -a 2 -x {2.0 5.0 6 ------- null}
- -t 0.586192 -s 3 -d 6 -p tcp -e 1540 -c 2 -i 16 -a 2 -x {2.0 5.0 3 ------- null}
h -t 0.586192 -s 3 -d 6 -p tcp -e 1540 -c 2 -i 16 -a 2 -x {2.0 5.0 -1 ------- null}
d -t 0.586196 -s 4 -d 6 -p tcp -e 1540 -c 2 -i 16 -a 2 -x {2.0 5.0 3 ------- null}
- -t 0.592608 -s 3 -d 6 -p tcp -e 1540 -c 2 -i 17 -a 2 -x {2.0 5.0 4 ------- null}
h -t 0.592608 -s 3 -d 6 -p tcp -e 1540 -c 2 -i 17 -a 2 -x {2.0 5.0 -1 ------- null}
d -t 0.592612 -s 4 -d 6 -p tcp -e 1540 -c 2 -i 17 -a 2 -x {2.0 5.0 4 ------- null}
- -t 0.599024 -s 3 -d 6 -p tcp -e 1540 -c 2 -i 18 -a 2 -x {2.0 5.0 5 ------- null}
h -t 0.599024 -s 3 -d 6 -p tcp -e 1540 -c 2 -i 18 -a 2 -x {2.0 5.0 -1 ------- null}
d -t 0.599028 -s 4 -d 6 -p tcp -e 1540 -c 2 -i 18 -a 2 -x {2.0 5.0 5 ------- null}
r -t 0.600532 -s 6 -d 4 -p tcp -e 1540 -c 1 -i 12 -a 1 -x {0.0 4.0 3 ------- null}
h -t 0.600532 -s 4 -d 6 -p ack -e 40 -c 1 -i 20 -a 1 -x {4.0 0.0 3 ------- null}
- -t 0.60544 -s 3 -d 6 -p tcp -e 1540 -c 2 -i 19 -a 2 -x {2.0 5.0 6 ------- null}
h -t 0.60544 -s 3 -d 6 -p tcp -e 1540 -c 2 -i 19 -a 2 -x {2.0 5.0 -1 ------- null}
d -t 0.605444 -s 4 -d 6 -p tcp -e 1540 -c 2 -i 19 -a 2 -x {2.0 5.0 6 ------- null}
r -t 0.606948 -s 6 -d 4 -p tcp -e 1540 -c 1 -i 13 -a 1 -x {0.0 4.0 4 ------- null}
h -t 0.606948 -s 4 -d 6 -p ack -e 40 -c 1 -i 21 -a 1 -x {4.0 0.0 4 ------- null}
r -t 0.613364 -s 6 -d 4 -p tcp -e 1540 -c 1 -i 14 -a 1 -x {0.0 4.0 5 ------- null}
h -t 0.613364 -s 4 -d 6 -p ack -e 40 -c 1 -i 22 -a 1 -x {4.0 0.0 5 ------- null}
r -t 0.61978 -s 6 -d 4 -p tcp -e 1540 -c 1 -i 15 -a 1 -x {0.0 4.0 6 ------- null}
h -t 0.61978 -s 4 -d 6 -p ack -e 40 -c 1 -i 23 -a 1 -x {4.0 0.0 6 ------- null}
r -t 0.626196 -s 6 -d 5 -p tcp -e 1540 -c 2 -i 16 -a 2 -x {2.0 5.0 3 ------- null}
h -t 0.626196 -s 5 -d 6 -p ack -e 40 -c 2 -i 24 -a 2 -x {5.0 2.0 3 ------- null}
r -t 0.632612 -s 6 -d 5 -p tcp -e 1540 -c 2 -i 17 -a 2 -x {2.0 5.0 4 ------- null}
h -t 0.632612 -s 5 -d 6 -p ack -e 40 -c 2 -i 25 -a 2 -x {5.0 2.0 4 ------- null}
r -t 0.639028 -s 6 -d 5 -p tcp -e 1540 -c 2 -i 18 -a 2 -x {2.0 5.0 5 ------- null}
h -t 0.639028 -s 5 -d 6 -p ack -e 40 -c 2 -i 26 -a 2 -x {5.0 2.0 5 ------- null}
+ -t 0.640532 -s 4 -d 6 -p ack -e 40 -c 1 -i 20 -a 1 -x {4.0 0.0 3 ------- null}
- -t 0.640532 -s 4 -d 6 -p ack -e 40 -c 1 -i 20 -a 1 -x {4.0 0.0 3 ------- null}
h -t 0.640532 -s 4 -d 6 -p ack -e 40 -c 1 -i 20 -a 1 -x {4.0 0.0 -1 ------- null}
d -t 0.640536 -s 5 -d 6 -p ack -e 40 -c 1 -i 20 -a 1 -x {4.0 0.0 3 ------- null}
r -t 0.645444 -s 6 -d 5 -p tcp -e 1540 -c 2 -i 19 -a 2 -x {2.0 5.0 6 ------- null}
h -t 0.645444 -s 5 -d 6 -p ack -e 40 -c 2 -i 27 -a 2 -x {5.0 2.0 6 ------- null}
+ -t 0.646948 -s 4 -d 6 -p ack -e 40 -c 1 -i 21 -a 1 -x {4.0 0.0 4 ------- null}
- -t 0.646948 -s 4 -d 6 -p ack -e 40 -c 1 -i 21 -a 1 -x {4.0 0.0 4 ------- null}
h -t 0.646948 -s 4 -d 6 -p ack -e 40 -c 1 -i 21 -a 1 -x {4.0 0.0 -1 ------- null}
d -t 0.646952 -s 5 -d 6 -p ack -e 40 -c 1 -i 21 -a 1 -x {4.0 0.0 4 ------- null}
+ -t 0.653364 -s 4 -d 6 -p ack -e 40 -c 1 -i 22 -a 1 -x {4.0 0.0 5 ------- null}
- -t 0.653364 -s 4 -d 6 -p ack -e 40 -c 1 -i 22 -a 1 -x {4.0 0.0 5 ------- null}
h -t 0.653364 -s 4 -d 6 -p ack -e 40 -c 1 -i 22 -a 1 -x {4.0 0.0 -1 ------- null}
d -t 0.653368 -s 5 -d 6 -p ack -e 40 -c 1 -i 22 -a 1 -x {4.0 0.0 5 ------- null}
+ -t 0.65978 -s 4 -d 6 -p ack -e 40 -c 1 -i 23 -a 1 -x {4.0 0.0 6 ------- null}
- -t 0.65978 -s 4 -d 6 -p ack -e 40 -c 1 -i 23 -a 1 -x {4.0 0.0 6 ------- null}
h -t 0.65978 -s 4 -d 6 -p ack -e 40 -c 1 -i 23 -a 1 -x {4.0 0.0 -1 ------- null}
d -t 0.659784 -s 5 -d 6 -p ack -e 40 -c 1 -i 23 -a 1 -x {4.0 0.0 6 ------- null}
+ -t 0.666196 -s 5 -d 6 -p ack -e 40 -c 2 -i 24 -a 2 -x {5.0 2.0 3 ------- null}
- -t 0.666196 -s 5 -d 6 -p ack -e 40 -c 2 -i 24 -a 2 -x {5.0 2.0 3 ------- null}
h -t 0.666196 -s 5 -d 6 -p ack -e 40 -c 2 -i 24 -a 2 -x {5.0 2.0 -1 ------- null}
d -t 0.6662 -s 4 -d 6 -p ack -e 40 -c 2 -i 24 -a 2 -x {5.0 2.0 3 ------- null}
+ -t 0.672612 -s 5 -d 6 -p ack -e 40 -c 2 -i 25 -a 2 -x {5.0 2.0 4 ------- null}
- -t 0.672612 -s 5 -d 6 -p ack -e 40 -c 2 -i 25 -a 2 -x {5.0 2.0 4 ------- null}
h -t 0.672612 -s 5 -d 6 -p ack -e 40 -c 2 -i 25 -a 2 -x {5.0 2.0 -1 ------- null}
d -t 0.672616 -s 4 -d 6 -p ack -e 40 -c 2 -i 25 -a 2 -x {5.0 2.0 4 ------- null}
+ -t 0.679028 -s 5 -d 6 -p ack -e 40 -c 2 -i 26 -a 2 -x {5.0 2.0 5 ------- null}
- -t 0.679028 -s 5 -d 6 -p ack -e 40 -c 2 -i 26 -a 2 -x {5.0 2.0 5 ------- null}
h -t 0.679028 -s 5 -d 6 -p ack -e 40 -c 2 -i 26 -a 2 -x {5.0 2.0 -1 ------- null}
d -t 0.679032 -s 4 -d 6 -p ack -e 40 -c 2 -i 26 -a 2 -x {5.0 2.0 5 ------- null}
r -t 0.680536 -s 6 -d 3 -p ack -e 40 -c 1 -i 20 -a 1 -x {4.0 0.0 3 ------- null}
+ -t 0.680536 -s 3 -d 1 -p ack -e 40 -c 1 -i 20 -a 1 -x {4.0 0.0 3 ------- null}
- -t 0.680536 -s 3 -d 1 -p ack -e 40 -c 1 -i 20 -a 1 -x {4.0 0.0 3 ------- null}
h -t 0.680536 -s 3 -d 1 -p ack -e 40 -c 1 -i 20 -a 1 -x {4.0 0.0 -1 ------- null}
+ -t 0.685444 -s 5 -d 6 -p ack -e 40 -c 2 -i 27 -a 2 -x {5.0 2.0 6 ------- null}
- -t 0.685444 -s 5 -d 6 -p ack -e 40 -c 2 -i 27 -a 2 -x {5.0 2.0 6 ------- null}
h -t 0.685444 -s 5 -d 6 -p ack -e 40 -c 2 -i 27 -a 2 -x {5.0 2.0 -1 ------- null}
d -t 0.685448 -s 4 -d 6 -p ack -e 40 -c 2 -i 27 -a 2 -x {5.0 2.0 6 ------- null}
r -t 0.686952 -s 6 -d 3 -p ack -e 40 -c 1 -i 21 -a 1 -x {4.0 0.0 4 ------- null}
+ -t 0.686952 -s 3 -d 1 -p ack -e 40 -c 1 -i 21 -a 1 -x {4.0 0.0 4 ------- null}
- -t 0.686952 -s 3 -d 1 -p ack -e 40 -c 1 -i 21 -a 1 -x {4.0 0.0 4 ------- null}
h -t 0.686952 -s 3 -d 1 -p ack -e 40 -c 1 -i 21 -a 1 -x {4.0 0.0 -1 ------- null}
r -t 0.6905392 -s 3 -d 1 -p ack -e 40 -c 1 -i 20 -a 1 -x {4.0 0.0 3 ------- null}
+ -t 0.6905392 -s 1 -d 0 -p ack -e 40 -c 1 -i 20 -a 1 -x {4.0 0.0 3 ------- null}
- -t 0.6905392 -s 1 -d 0 -p ack -e 40 -c 1 -i 20 -a 1 -x {4.0 0.0 3 ------- null}
h -t 0.6905392 -s 1 -d 0 -p ack -e 40 -c 1 -i 20 -a 1 -x {4.0 0.0 -1 ------- null}
r -t 0.693368 -s 6 -d 3 -p ack -e 40 -c 1 -i 22 -a 1 -x {4.0 0.0 5 ------- null}
+ -t 0.693368 -s 3 -d 1 -p ack -e 40 -c 1 -i 22 -a 1 -x {4.0 0.0 5 ------- null}
- -t 0.693368 -s 3 -d 1 -p ack -e 40 -c 1 -i 22 -a 1 -x {4.0 0.0 5 ------- null}
h -t 0.693368 -s 3 -d 1 -p ack -e 40 -c 1 -i 22 -a 1 -x {4.0 0.0 -1 ------- null}
r -t 0.6969552 -s 3 -d 1 -p ack -e 40 -c 1 -i 21 -a 1 -x {4.0 0.0 4 ------- null}
+ -t 0.6969552 -s 1 -d 0 -p ack -e 40 -c 1 -i 21 -a 1 -x {4.0 0.0 4 ------- null}
- -t 0.6969552 -s 1 -d 0 -p ack -e 40 -c 1 -i 21 -a 1 -x {4.0 0.0 4 ------- null}
h -t 0.6969552 -s 1 -d 0 -p ack -e 40 -c 1 -i 21 -a 1 -x {4.0 0.0 -1 ------- null}
r -t 0.699784 -s 6 -d 3 -p ack -e 40 -c 1 -i 23 -a 1 -x {4.0 0.0 6 ------- null}
+ -t 0.699784 -s 3 -d 1 -p ack -e 40 -c 1 -i 23 -a 1 -x {4.0 0.0 6 ------- null}
- -t 0.699784 -s 3 -d 1 -p ack -e 40 -c 1 -i 23 -a 1 -x {4.0 0.0 6 ------- null}
h -t 0.699784 -s 3 -d 1 -p ack -e 40 -c 1 -i 23 -a 1 -x {4.0 0.0 -1 ------- null}
r -t 0.7005424 -s 1 -d 0 -p ack -e 40 -c 1 -i 20 -a 1 -x {4.0 0.0 3 ------- null}
+ -t 0.7005424 -s 0 -d 1 -p tcp -e 1540 -c 1 -i 28 -a 1 -x {0.0 4.0 7 ------- null}
- -t 0.7005424 -s 0 -d 1 -p tcp -e 1540 -c 1 -i 28 -a 1 -x {0.0 4.0 7 ------- null}
h -t 0.7005424 -s 0 -d 1 -p tcp -e 1540 -c 1 -i 28 -a 1 -x {0.0 4.0 -1 ------- null}
+ -t 0.7005424 -s 0 -d 1 -p tcp -e 1540 -c 1 -i 29 -a 1 -x {0.0 4.0 8 ------- null}
- -t 0.7006656 -s 0 -d 1 -p tcp -e 1540 -c 1 -i 29 -a 1 -x {0.0 4.0 8 ------- null}
h -t 0.7006656 -s 0 -d 1 -p tcp -e 1540 -c 1 -i 29 -a 1 -x {0.0 4.0 -1 ------- null}
r -t 0.7033712 -s 3 -d 1 -p ack -e 40 -c 1 -i 22 -a 1 -x {4.0 0.0 5 ------- null}
+ -t 0.7033712 -s 1 -d 0 -p ack -e 40 -c 1 -i 22 -a 1 -x {4.0 0.0 5 ------- null}
- -t 0.7033712 -s 1 -d 0 -p ack -e 40 -c 1 -i 22 -a 1 -x {4.0 0.0 5 ------- null}
h -t 0.7033712 -s 1 -d 0 -p ack -e 40 -c 1 -i 22 -a 1 -x {4.0 0.0 -1 ------- null}